<?xml version="1.0" encoding="UTF-8"?>

<!-- generated on 2025-09-20 17:57:25 by Eclipse SUMO GUI Version 1.24.0
<sumoConfiguration xmlns:xsi="http://www.w3.org/2001/XMLSchema-instance" xsi:noNamespaceSchemaLocation="http://sumo.dlr.de/xsd/sumoConfiguration.xsd">

    <input>
        <net-file value="../Banglore_Silk_Junction_Map/osm.net.xml.gz"/>
        <route-files value="../Banglore_Silk_Junction_Map/osm_pt.rou.xml,../Banglore_Silk_Junction_Map/osm.passenger.trips.xml"/>
        <additional-files value="../Banglore_Silk_Junction_Map/osm.poly.xml.gz,../Banglore_Silk_Junction_Map/osm_stops.add.xml,../Banglore_Silk_Junction_Map/output.add.xml"/>
    </input>

    <output>
        <summary-output value="outputs/bangalore_after_ai_summary.xml"/>
        <tripinfo-output value="outputs/bangalore_after_ai_tripinfo.xml"/>
        <stop-output value="../Banglore_Silk_Junction_Map/stopinfos.xml"/>
        <statistic-output value="../Banglore_Silk_Junction_Map/stats.xml"/>
    </output>

    <processing>
        <ignore-route-errors value="true"/>
        <tls.actuated.jam-threshold value="30"/>
    </processing>

    <routing>
        <device.rerouting.adaptation-steps value="18"/>
        <device.rerouting.adaptation-interval value="10"/>
    </routing>

    <report>
        <verbose value="true"/>
        <duration-log.statistics value="true"/>
        <no-step-log value="true"/>
    </report>

    <traci_server>
        <remote-port value="8813"/>
    </traci_server>

    <gui_only>
        <gui-settings-file value="../Banglore_Silk_Junction_Map/osm.view.xml"/>
        <start value="true"/>
    </gui_only>

</sumoConfiguration>
-->

<meandata xmlns:xsi="http://www.w3.org/2001/XMLSchema-instance" xsi:noNamespaceSchemaLocation="http://sumo.dlr.de/xsd/meandata_file.xsd">
    <interval begin="0.00" end="3600.00" id="wizard_example">
        <edge id="-1030669035#0" sampledSeconds="40.39" traveltime="3.01" overlapTraveltime="3.80" density="0.52" laneDensity="0.52" occupancy="0.22" waitingTime="0.00" timeLoss="16.78" speed="6.98" speedRelative="0.50" departed="2" arrived="1" entered="9" left="10" laneChangedFrom="0" laneChangedTo="0"/>
        <edge id="-1030669035#1" sampledSeconds="38.01" traveltime="3.79" overlapTraveltime="4.33" density="0.33" laneDensity="0.33" occupancy="0.14" waitingTime="0.00" timeLoss="14.10" speed="8.49" speedRelative="0.61" departed="1" arrived="1" entered="8" left="8" laneChangedFrom="0" laneChangedTo="0"/>
        <edge id="-1031629624" sampledSeconds="12.05" traveltime="5.74" overlapTraveltime="6.60" density="0.06" laneDensity="0.06" occupancy="0.03" waitingTime="0.00" timeLoss="3.30" speed="8.88" speedRelative="0.64" departed="2" arrived="0" entered="0" left="2" laneChangedFrom="0" laneChangedTo="0"/>
        <edge id="-1042112410" sampledSeconds="998.30" traveltime="3.50" overlapTraveltime="4.50" density="133.33" laneDensity="133.33" occupancy="16.40" waitingTime="761.29" timeLoss="862.00" speed="1.16" speedRelative="0.05" departed="0" arrived="0" entered="222" left="222" laneChangedFrom="0" laneChangedTo="0"/>
        <edge id="-1053508154" sampledSeconds="248.32" traveltime="1.21" overlapTraveltime="2.09" density="5.88" laneDensity="2.94" occupancy="0.95" waitingTime="30.00" timeLoss="63.86" speed="8.00" speedRelative="0.72" departed="1" arrived="1" entered="118" left="118" laneChangedFrom="2" laneChangedTo="2"/>
        <edge id="-1055657462" sampledSeconds="10.29" traveltime="3.22" overlapTraveltime="3.58" density="0.07" laneDensity="0.07" occupancy="0.03" waitingTime="0.00" timeLoss="0.86" speed="13.03" speedRelative="0.94" departed="0" arrived="3" entered="3" left="0" laneChangedFrom="0" laneChangedTo="0"/>
        <edge id="-1057791199" sampledSeconds="21.15" traveltime="1.32" overlapTraveltime="2.11" density="0.75" laneDensity="0.75" occupancy="0.24" waitingTime="0.00" timeLoss="10.82" speed="6.04" speedRelative="0.44" departed="0" arrived="1" entered="10" left="9" laneChangedFrom="0" laneChangedTo="0"/>
        <edge id="-1063933802#1" sampledSeconds="107.40" traveltime="19.96" overlapTraveltime="21.48" density="0.14" laneDensity="0.14" occupancy="0.07" waitingTime="7.00" timeLoss="24.11" speed="10.03" speedRelative="0.72" departed="0" arrived="0" entered="5" left="5" laneChangedFrom="0" laneChangedTo="0"/>
        <edge id="-1063933802#3" sampledSeconds="25.18" traveltime="8.40" overlapTraveltime="8.79" density="0.07" laneDensity="0.07" occupancy="0.03" waitingTime="0.00" timeLoss="1.16" speed="12.74" speedRelative="0.92" departed="3" arrived="0" entered="0" left="3" laneChangedFrom="0" laneChangedTo="0"/>
        <edge id="-1065415314" sampledSeconds="7.34" traveltime="6.60" overlapTraveltime="7.83" density="0.03" laneDensity="0.03" occupancy="0.01" waitingTime="0.00" timeLoss="2.22" speed="10.29" speedRelative="0.74" departed="1" arrived="0" entered="0" left="1" laneChangedFrom="0" laneChangedTo="0"/>
        <edge id="-1066405076" sampledSeconds="208.47" traveltime="0.78" overlapTraveltime="1.46" density="11.87" laneDensity="11.87" occupancy="2.89" waitingTime="0.00" timeLoss="104.54" speed="6.78" speedRelative="0.49" departed="0" arrived="0" entered="143" left="143" laneChangedFrom="0" laneChangedTo="0"/>
        <edge id="-1084559539" sampledSeconds="8.66" traveltime="2.60" overlapTraveltime="3.10" density="0.12" laneDensity="0.12" occupancy="0.05" waitingTime="0.00" timeLoss="2.83" speed="8.18" speedRelative="0.59" departed="1" arrived="2" entered="2" left="1" laneChangedFrom="0" laneChangedTo="0"/>
        <edge id="-1097614933" sampledSeconds="31.84" traveltime="15.10" overlapTraveltime="16.18" density="0.06" laneDensity="0.06" occupancy="0.03" waitingTime="1.00" timeLoss="10.88" speed="9.73" speedRelative="0.70" departed="1" arrived="0" entered="1" left="2" laneChangedFrom="0" laneChangedTo="0"/>
        <edge id="-1098469008#0" sampledSeconds="11.45" traveltime="3.50" overlapTraveltime="4.30" density="0.13" laneDensity="0.13" occupancy="0.06" waitingTime="0.00" timeLoss="4.92" speed="6.78" speedRelative="0.49" departed="1" arrived="1" entered="2" left="2" laneChangedFrom="0" laneChangedTo="0"/>
        <edge id="-1098469008#1" sampledSeconds="8.93" traveltime="2.58" overlapTraveltime="3.23" density="0.15" laneDensity="0.15" occupancy="0.06" waitingTime="0.00" timeLoss="3.77" speed="6.72" speedRelative="0.48" departed="1" arrived="0" entered="2" left="3" laneChangedFrom="0" laneChangedTo="0"/>
        <edge id="-1098469008#2" sampledSeconds="2.61" traveltime="2.18" overlapTraveltime="2.61" density="0.04" laneDensity="0.04" occupancy="0.01" waitingTime="0.00" timeLoss="0.61" speed="9.69" speedRelative="0.70" departed="0" arrived="0" entered="1" left="1" laneChangedFrom="0" laneChangedTo="0"/>
        <edge id="-1099665396#0" sampledSeconds="8.73" traveltime="8.01" overlapTraveltime="8.73" density="0.03" laneDensity="0.03" occupancy="0.01" waitingTime="0.00" timeLoss="2.52" speed="8.99" speedRelative="0.65" departed="0" arrived="0" entered="1" left="1" laneChangedFrom="0" laneChangedTo="0"/>
        <edge id="-1099665396#1" sampledSeconds="11.26" traveltime="5.30" overlapTraveltime="5.91" density="0.07" laneDensity="0.07" occupancy="0.03" waitingTime="0.00" timeLoss="3.44" speed="8.97" speedRelative="0.65" departed="1" arrived="1" entered="1" left="1" laneChangedFrom="0" laneChangedTo="0"/>
        <edge id="-1099665396#2" sampledSeconds="9.14" traveltime="1.68" overlapTraveltime="2.48" density="0.23" laneDensity="0.23" occupancy="0.08" waitingTime="0.00" timeLoss="3.36" speed="6.55" speedRelative="0.47" departed="1" arrived="0" entered="3" left="4" laneChangedFrom="0" laneChangedTo="0"/>
        <edge id="-1099665396#3" sampledSeconds="19.20" traveltime="2.57" overlapTraveltime="3.20" density="0.35" laneDensity="0.35" occupancy="0.13" waitingTime="0.00" timeLoss="9.50" speed="6.33" speedRelative="0.46" departed="0" arrived="0" entered="6" left="6" laneChangedFrom="0" laneChangedTo="0"/>
        <edge id="-1099665398" sampledSeconds="2.97" traveltime="0.02" overlapTraveltime="1.37" density="4.58" laneDensity="4.58" occupancy="0.08" waitingTime="0.00" timeLoss="1.72" speed="3.79" speedRelative="0.27" departed="1" arrived="1" entered="2" left="2" laneChangedFrom="0" laneChangedTo="0"/>
        <edge id="-1100616693#0" sampledSeconds="72.04" traveltime="17.32" overlapTraveltime="18.64" density="0.61" laneDensity="0.61" occupancy="0.29" waitingTime="48.00" timeLoss="56.98" speed="2.04" speedRelative="0.15" departed="1" arrived="0" entered="3" left="4" laneChangedFrom="0" laneChangedTo="0"/>
        <edge id="-1100616693#1" sampledSeconds="13.76" traveltime="6.46" overlapTraveltime="6.88" density="0.05" laneDensity="0.05" occupancy="0.02" waitingTime="0.00" timeLoss="0.78" speed="12.13" speedRelative="0.87" departed="0" arrived="0" entered="2" left="2" laneChangedFrom="0" laneChangedTo="0"/>
        <edge id="-1100616693#2" sampledSeconds="11.22" traveltime="3.18" overlapTraveltime="3.74" density="0.11" laneDensity="0.11" occupancy="0.05" waitingTime="0.00" timeLoss="2.89" speed="8.95" speedRelative="0.64" departed="0" arrived="0" entered="3" left="3" laneChangedFrom="0" laneChangedTo="0"/>
        <edge id="-1101668233" sampledSeconds="0.00" departed="0" arrived="0" entered="0" left="0" laneChangedFrom="0" laneChangedTo="0"/>
        <edge id="-1101668234" sampledSeconds="15.94" traveltime="7.89" overlapTraveltime="8.39" density="0.06" laneDensity="0.06" occupancy="0.03" waitingTime="0.00" timeLoss="5.10" speed="9.49" speedRelative="0.68" departed="1" arrived="1" entered="1" left="1" laneChangedFrom="0" laneChangedTo="0"/>
        <edge id="-1101668235" sampledSeconds="2.54" traveltime="1.19" overlapTraveltime="1.62" density="0.19" laneDensity="0.19" occupancy="0.04" waitingTime="0.00" timeLoss="1.53" speed="5.39" speedRelative="0.39" departed="1" arrived="0" entered="1" left="2" laneChangedFrom="0" laneChangedTo="0"/>
        <edge id="-1101668236#0" sampledSeconds="6.56" traveltime="0.03" overlapTraveltime="0.94" density="9.12" laneDensity="9.12" occupancy="0.18" waitingTime="0.00" timeLoss="2.61" speed="5.52" speedRelative="0.40" departed="1" arrived="0" entered="6" left="7" laneChangedFrom="0" laneChangedTo="0"/>
        <edge id="-1101668236#1" sampledSeconds="9.43" traveltime="1.32" overlapTraveltime="1.89" density="0.20" laneDensity="0.20" occupancy="0.07" waitingTime="0.00" timeLoss="3.38" speed="9.44" speedRelative="0.68" departed="0" arrived="0" entered="5" left="5" laneChangedFrom="0" laneChangedTo="0"/>
        <edge id="-1101668236#2" sampledSeconds="12.30" traveltime="4.04" overlapTraveltime="4.40" density="0.08" laneDensity="0.08" occupancy="0.03" waitingTime="0.00" timeLoss="2.99" speed="11.24" speedRelative="0.81" departed="2" arrived="0" entered="1" left="3" laneChangedFrom="0" laneChangedTo="0"/>
        <edge id="-1101668237" sampledSeconds="5.07" traveltime="2.44" overlapTraveltime="3.36" density="0.09" laneDensity="0.09" occupancy="0.04" waitingTime="0.00" timeLoss="1.43" speed="6.16" speedRelative="0.44" departed="2" arrived="0" entered="0" left="2" laneChangedFrom="0" laneChangedTo="0"/>
        <edge id="-1101668238" sampledSeconds="4.02" traveltime="3.85" overlapTraveltime="4.68" density="0.04" laneDensity="0.04" occupancy="0.02" waitingTime="0.00" timeLoss="1.44" speed="7.80" speedRelative="0.56" departed="1" arrived="0" entered="0" left="1" laneChangedFrom="0" laneChangedTo="0"/>
        <edge id="-1101668239" sampledSeconds="0.00" departed="0" arrived="0" entered="0" left="0" laneChangedFrom="0" laneChangedTo="0"/>
        <edge id="-1101668240#0" sampledSeconds="13.74" traveltime="1.64" overlapTraveltime="2.43" density="0.41" laneDensity="0.41" occupancy="0.14" waitingTime="0.00" timeLoss="4.97" speed="5.86" speedRelative="0.42" departed="1" arrived="0" entered="5" left="6" laneChangedFrom="0" laneChangedTo="0"/>
        <edge id="-1101668240#1" sampledSeconds="12.32" traveltime="1.53" overlapTraveltime="2.05" density="0.31" laneDensity="0.31" occupancy="0.11" waitingTime="0.00" timeLoss="5.06" speed="7.79" speedRelative="0.56" departed="0" arrived="1" entered="6" left="5" laneChangedFrom="0" laneChangedTo="0"/>
        <edge id="-1101668241" sampledSeconds="0.00" departed="0" arrived="0" entered="0" left="0" laneChangedFrom="0" laneChangedTo="0"/>
        <edge id="-1101668242" sampledSeconds="26.89" traveltime="9.72" overlapTraveltime="11.00" density="0.33" laneDensity="0.33" occupancy="0.15" waitingTime="0.00" timeLoss="7.90" speed="2.51" speedRelative="0.90" departed="3" arrived="0" entered="0" left="3" laneChangedFrom="0" laneChangedTo="0"/>
        <edge id="-1101668243" sampledSeconds="9.96" traveltime="9.21" overlapTraveltime="11.53" density="0.13" laneDensity="0.13" occupancy="0.06" waitingTime="0.00" timeLoss="2.36" speed="2.32" speedRelative="0.84" departed="0" arrived="1" entered="1" left="0" laneChangedFrom="0" laneChangedTo="0"/>
        <edge id="-1101668244" sampledSeconds="12.35" traveltime="3.71" overlapTraveltime="4.15" density="0.07" laneDensity="0.07" occupancy="0.03" waitingTime="0.00" timeLoss="1.69" speed="12.51" speedRelative="0.90" departed="0" arrived="2" entered="3" left="1" laneChangedFrom="0" laneChangedTo="0"/>
        <edge id="-1101668245" sampledSeconds="22.54" traveltime="4.87" overlapTraveltime="5.64" density="0.17" laneDensity="0.17" occupancy="0.07" waitingTime="0.00" timeLoss="10.52" speed="7.32" speedRelative="0.53" departed="0" arrived="0" entered="4" left="4" laneChangedFrom="0" laneChangedTo="0"/>
        <edge id="-1101668246" sampledSeconds="4.42" traveltime="2.20" overlapTraveltime="2.89" density="0.07" laneDensity="0.07" occupancy="0.03" waitingTime="0.00" timeLoss="1.12" speed="7.54" speedRelative="0.54" departed="2" arrived="0" entered="0" left="2" laneChangedFrom="0" laneChangedTo="0"/>
        <edge id="-1101668247#1" sampledSeconds="19.87" traveltime="6.42" overlapTraveltime="7.07" density="0.07" laneDensity="0.07" occupancy="0.03" waitingTime="0.00" timeLoss="3.87" speed="11.38" speedRelative="0.82" departed="3" arrived="0" entered="0" left="3" laneChangedFrom="0" laneChangedTo="0"/>
        <edge id="-1101668248" sampledSeconds="10.71" traveltime="1.54" overlapTraveltime="1.93" density="0.15" laneDensity="0.15" occupancy="0.07" waitingTime="0.00" timeLoss="0.51" speed="12.92" speedRelative="0.93" departed="7" arrived="0" entered="0" left="7" laneChangedFrom="0" laneChangedTo="0"/>
        <edge id="-1101675537" sampledSeconds="6.12" traveltime="3.13" overlapTraveltime="3.97" density="0.10" laneDensity="0.10" occupancy="0.04" waitingTime="0.00" timeLoss="2.91" speed="5.62" speedRelative="0.40" departed="2" arrived="0" entered="0" left="2" laneChangedFrom="0" laneChangedTo="0"/>
        <edge id="-1101675538" sampledSeconds="11.82" traveltime="3.74" overlapTraveltime="4.57" density="0.10" laneDensity="0.10" occupancy="0.05" waitingTime="0.00" timeLoss="3.93" speed="8.02" speedRelative="0.58" departed="3" arrived="0" entered="0" left="3" laneChangedFrom="0" laneChangedTo="0"/>
        <edge id="-1101675540" sampledSeconds="12.08" traveltime="2.13" overlapTraveltime="3.01" density="0.43" laneDensity="0.43" occupancy="0.15" waitingTime="0.00" timeLoss="4.75" speed="4.25" speedRelative="0.31" departed="5" arrived="0" entered="1" left="6" laneChangedFrom="0" laneChangedTo="0"/>
        <edge id="-1101675541" sampledSeconds="6.29" traveltime="2.22" overlapTraveltime="3.00" density="0.15" laneDensity="0.15" occupancy="0.06" waitingTime="0.00" timeLoss="2.18" speed="5.66" speedRelative="0.41" departed="3" arrived="0" entered="0" left="3" laneChangedFrom="0" laneChangedTo="0"/>
        <edge id="-1101675542" sampledSeconds="11.58" traveltime="1.87" overlapTraveltime="2.32" density="0.19" laneDensity="0.19" occupancy="0.07" waitingTime="0.00" timeLoss="3.37" speed="9.51" speedRelative="0.68" departed="0" arrived="0" entered="5" left="5" laneChangedFrom="0" laneChangedTo="0"/>
        <edge id="-1101675543" sampledSeconds="7.81" traveltime="3.80" overlapTraveltime="4.41" density="0.05" laneDensity="0.05" occupancy="0.03" waitingTime="0.00" timeLoss="2.09" speed="10.12" speedRelative="0.73" departed="2" arrived="0" entered="0" left="2" laneChangedFrom="0" laneChangedTo="0"/>
        <edge id="-1101675544#1" sampledSeconds="14.56" traveltime="14.18" overlapTraveltime="14.56" density="0.02" laneDensity="0.02" occupancy="0.01" waitingTime="0.00" timeLoss="0.82" speed="13.18" speedRelative="0.95" departed="0" arrived="1" entered="1" left="0" laneChangedFrom="0" laneChangedTo="0"/>
        <edge id="-1101675544#2" sampledSeconds="2.43" traveltime="0.05" overlapTraveltime="1.12" density="3.37" laneDensity="3.37" occupancy="0.06" waitingTime="0.00" timeLoss="1.63" speed="4.66" speedRelative="0.34" departed="0" arrived="3" entered="4" left="1" laneChangedFrom="0" laneChangedTo="0"/>
        <edge id="-1101675578" sampledSeconds="15.59" traveltime="5.09" overlapTraveltime="5.66" density="0.08" laneDensity="0.08" occupancy="0.04" waitingTime="0.00" timeLoss="3.19" speed="10.89" speedRelative="0.78" departed="3" arrived="0" entered="0" left="3" laneChangedFrom="0" laneChangedTo="0"/>
        <edge id="-1101675580" sampledSeconds="18.75" traveltime="6.10" overlapTraveltime="6.51" density="0.08" laneDensity="0.08" occupancy="0.04" waitingTime="0.00" timeLoss="4.15" speed="11.22" speedRelative="0.81" departed="0" arrived="3" entered="3" left="0" laneChangedFrom="0" laneChangedTo="0"/>
        <edge id="-1101675583" sampledSeconds="13.69" traveltime="3.21" overlapTraveltime="4.33" density="0.20" laneDensity="0.20" occupancy="0.08" waitingTime="0.00" timeLoss="5.15" speed="5.64" speedRelative="0.41" departed="4" arrived="0" entered="0" left="4" laneChangedFrom="0" laneChangedTo="0"/>
        <edge id="-1101690257" sampledSeconds="9.56" traveltime="4.40" overlapTraveltime="4.78" density="0.06" laneDensity="0.06" occupancy="0.03" waitingTime="0.00" timeLoss="2.56" speed="9.99" speedRelative="0.72" departed="0" arrived="2" entered="2" left="0" laneChangedFrom="0" laneChangedTo="0"/>
        <edge id="-1101690258" sampledSeconds="38.57" traveltime="4.43" overlapTraveltime="4.82" density="0.22" laneDensity="0.22" occupancy="0.10" waitingTime="0.00" timeLoss="6.30" speed="11.20" speedRelative="0.81" departed="0" arrived="2" entered="8" left="6" laneChangedFrom="0" laneChangedTo="0"/>
        <edge id="-1101690259" sampledSeconds="7.08" traveltime="3.47" overlapTraveltime="4.21" density="0.07" laneDensity="0.07" occupancy="0.03" waitingTime="0.00" timeLoss="2.59" speed="7.63" speedRelative="0.55" departed="2" arrived="0" entered="0" left="2" laneChangedFrom="0" laneChangedTo="0"/>
        <edge id="-1101690260" sampledSeconds="3.50" traveltime="0.15" overlapTraveltime="1.39" density="1.11" laneDensity="1.11" occupancy="0.09" waitingTime="0.00" timeLoss="1.83" speed="4.22" speedRelative="0.30" departed="1" arrived="1" entered="2" left="2" laneChangedFrom="0" laneChangedTo="0"/>
        <edge id="-1101690261" sampledSeconds="16.08" traveltime="3.63" overlapTraveltime="4.02" density="0.12" laneDensity="0.12" occupancy="0.05" waitingTime="0.00" timeLoss="4.57" speed="10.16" speedRelative="0.73" departed="0" arrived="4" entered="4" left="0" laneChangedFrom="0" laneChangedTo="0"/>
        <edge id="-1101690262" sampledSeconds="19.09" traveltime="2.42" overlapTraveltime="3.18" density="0.32" laneDensity="0.32" occupancy="0.12" waitingTime="0.00" timeLoss="7.12" speed="6.79" speedRelative="0.49" departed="0" arrived="0" entered="6" left="6" laneChangedFrom="0" laneChangedTo="0"/>
        <edge id="-1101690264" sampledSeconds="15.12" traveltime="4.94" overlapTraveltime="5.37" density="0.08" laneDensity="0.08" occupancy="0.04" waitingTime="0.00" timeLoss="3.62" speed="10.86" speedRelative="0.78" departed="0" arrived="3" entered="3" left="0" laneChangedFrom="0" laneChangedTo="0"/>
        <edge id="-1101690265" sampledSeconds="9.07" traveltime="4.51" overlapTraveltime="5.18" density="0.08" laneDensity="0.08" occupancy="0.04" waitingTime="0.00" timeLoss="4.24" speed="7.28" speedRelative="0.52" departed="1" arrived="1" entered="1" left="1" laneChangedFrom="0" laneChangedTo="0"/>
        <edge id="-1101690266" sampledSeconds="20.03" traveltime="4.25" overlapTraveltime="5.34" density="0.17" laneDensity="0.17" occupancy="0.07" waitingTime="0.00" timeLoss="7.78" speed="6.91" speedRelative="0.50" departed="1" arrived="1" entered="3" left="3" laneChangedFrom="0" laneChangedTo="0"/>
        <edge id="-1101690267" sampledSeconds="20.26" traveltime="3.07" overlapTraveltime="3.45" density="0.14" laneDensity="0.14" occupancy="0.06" waitingTime="0.00" timeLoss="0.91" speed="13.02" speedRelative="0.94" departed="0" arrived="6" entered="6" left="0" laneChangedFrom="0" laneChangedTo="0"/>
        <edge id="-1101690270" sampledSeconds="11.30" traveltime="0.27" overlapTraveltime="1.18" density="1.84" laneDensity="1.84" occupancy="0.24" waitingTime="0.00" timeLoss="3.24" speed="5.71" speedRelative="0.41" departed="0" arrived="6" entered="10" left="4" laneChangedFrom="0" laneChangedTo="0"/>
        <edge id="-1101690290" sampledSeconds="0.00" departed="0" arrived="0" entered="0" left="0" laneChangedFrom="0" laneChangedTo="0"/>
        <edge id="-1101690298#0" sampledSeconds="28.07" traveltime="1.92" overlapTraveltime="2.62" density="0.61" laneDensity="0.61" occupancy="0.24" waitingTime="0.00" timeLoss="10.67" speed="6.75" speedRelative="0.49" departed="1" arrived="1" entered="10" left="10" laneChangedFrom="0" laneChangedTo="0"/>
        <edge id="-1101690298#1" sampledSeconds="22.60" traveltime="1.68" overlapTraveltime="2.16" density="0.42" laneDensity="0.42" occupancy="0.17" waitingTime="0.00" timeLoss="6.44" speed="9.20" speedRelative="0.66" departed="2" arrived="1" entered="9" left="10" laneChangedFrom="0" laneChangedTo="0"/>
        <edge id="-1101690298#2" sampledSeconds="12.48" traveltime="1.61" overlapTraveltime="2.12" density="0.39" laneDensity="0.39" occupancy="0.12" waitingTime="0.00" timeLoss="6.42" speed="6.52" speedRelative="0.47" departed="3" arrived="0" entered="4" left="7" laneChangedFrom="0" laneChangedTo="0"/>
        <edge id="-1101690299" sampledSeconds="12.69" traveltime="6.02" overlapTraveltime="6.92" density="0.06" laneDensity="0.06" occupancy="0.03" waitingTime="0.00" timeLoss="2.42" speed="8.88" speedRelative="0.64" departed="2" arrived="0" entered="0" left="2" laneChangedFrom="0" laneChangedTo="0"/>
        <edge id="-1101690300" sampledSeconds="9.30" traveltime="4.44" overlapTraveltime="4.85" density="0.05" laneDensity="0.05" occupancy="0.02" waitingTime="0.00" timeLoss="1.30" speed="11.77" speedRelative="0.85" departed="0" arrived="2" entered="2" left="0" laneChangedFrom="0" laneChangedTo="0"/>
        <edge id="-1101690301" sampledSeconds="4.91" traveltime="2.25" overlapTraveltime="2.66" density="0.06" laneDensity="0.06" occupancy="0.02" waitingTime="0.00" timeLoss="0.68" speed="10.95" speedRelative="0.79" departed="0" arrived="2" entered="2" left="0" laneChangedFrom="0" laneChangedTo="0"/>
        <edge id="-1101696060" sampledSeconds="5.08" traveltime="4.81" overlapTraveltime="5.52" density="0.02" laneDensity="0.02" occupancy="0.01" waitingTime="0.00" timeLoss="1.21" speed="11.45" speedRelative="0.82" departed="1" arrived="0" entered="0" left="1" laneChangedFrom="0" laneChangedTo="0"/>
        <edge id="-1101696061" sampledSeconds="3.42" traveltime="2.87" overlapTraveltime="3.42" density="0.05" laneDensity="0.05" occupancy="0.02" waitingTime="0.00" timeLoss="1.71" speed="6.64" speedRelative="0.48" departed="0" arrived="0" entered="1" left="1" laneChangedFrom="0" laneChangedTo="0"/>
        <edge id="-1101696062" sampledSeconds="0.00" departed="0" arrived="0" entered="0" left="0" laneChangedFrom="0" laneChangedTo="0"/>
        <edge id="-1101696063" sampledSeconds="0.00" departed="0" arrived="0" entered="0" left="0" laneChangedFrom="0" laneChangedTo="0"/>
        <edge id="-1101696064" sampledSeconds="0.00" departed="0" arrived="0" entered="0" left="0" laneChangedFrom="0" laneChangedTo="0"/>
        <edge id="-1101696105" sampledSeconds="7.62" traveltime="7.61" overlapTraveltime="8.46" density="0.05" laneDensity="0.05" occupancy="0.02" waitingTime="0.00" timeLoss="2.79" speed="6.10" speedRelative="0.44" departed="1" arrived="0" entered="0" left="1" laneChangedFrom="0" laneChangedTo="0"/>
        <edge id="-1101696108" sampledSeconds="9.57" traveltime="3.07" overlapTraveltime="3.96" density="0.12" laneDensity="0.12" occupancy="0.05" waitingTime="0.00" timeLoss="3.11" speed="6.65" speedRelative="0.48" departed="3" arrived="0" entered="0" left="3" laneChangedFrom="0" laneChangedTo="0"/>
        <edge id="-1101696109#0" sampledSeconds="11.32" traveltime="1.86" overlapTraveltime="3.03" density="0.22" laneDensity="0.22" occupancy="0.08" waitingTime="0.00" timeLoss="4.42" speed="6.31" speedRelative="0.45" departed="0" arrived="2" entered="4" left="2" laneChangedFrom="0" laneChangedTo="0"/>
        <edge id="-1101696109#1" sampledSeconds="8.64" traveltime="1.00" overlapTraveltime="1.91" density="0.42" laneDensity="0.42" occupancy="0.12" waitingTime="0.00" timeLoss="4.74" speed="5.60" speedRelative="0.40" departed="1" arrived="0" entered="4" left="5" laneChangedFrom="0" laneChangedTo="0"/>
        <edge id="-1101696110" sampledSeconds="23.49" traveltime="5.45" overlapTraveltime="6.42" density="0.12" laneDensity="0.12" occupancy="0.06" waitingTime="0.00" timeLoss="4.61" speed="9.27" speedRelative="0.67" departed="4" arrived="0" entered="0" left="4" laneChangedFrom="0" laneChangedTo="0"/>
        <edge id="-1101696111" sampledSeconds="7.64" traveltime="3.27" overlapTraveltime="3.82" density="0.12" laneDensity="0.12" occupancy="0.04" waitingTime="0.00" timeLoss="4.20" speed="6.06" speedRelative="0.44" departed="0" arrived="0" entered="2" left="2" laneChangedFrom="0" laneChangedTo="0"/>
        <edge id="-1102823903" sampledSeconds="16.39" traveltime="10.98" overlapTraveltime="8.76" density="0.53" laneDensity="0.53" occupancy="0.24" waitingTime="10.00" timeLoss="13.63" speed="1.54" speedRelative="0.11" departed="3" arrived="0" entered="0" left="3" laneChangedFrom="0" laneChangedTo="0"/>
        <edge id="-1102823904" sampledSeconds="6.01" traveltime="2.37" overlapTraveltime="3.00" density="0.16" laneDensity="0.16" occupancy="0.06" waitingTime="0.00" timeLoss="2.81" speed="5.12" speedRelative="0.37" departed="3" arrived="0" entered="0" left="3" laneChangedFrom="0" laneChangedTo="0"/>
        <edge id="-1102823906" sampledSeconds="0.00" departed="0" arrived="0" entered="0" left="0" laneChangedFrom="0" laneChangedTo="0"/>
        <edge id="-1102823908" sampledSeconds="27.22" traveltime="8.52" overlapTraveltime="9.38" density="0.08" laneDensity="0.08" occupancy="0.04" waitingTime="0.00" timeLoss="4.79" speed="10.97" speedRelative="0.79" departed="2" arrived="0" entered="1" left="3" laneChangedFrom="0" laneChangedTo="0"/>
        <edge id="-1102829128" sampledSeconds="12.19" traveltime="3.77" overlapTraveltime="4.64" density="0.09" laneDensity="0.09" occupancy="0.04" waitingTime="0.00" timeLoss="3.32" speed="8.79" speedRelative="0.63" departed="3" arrived="0" entered="0" left="3" laneChangedFrom="0" laneChangedTo="0"/>
        <edge id="-1102829129" sampledSeconds="5.08" traveltime="4.80" overlapTraveltime="5.67" density="0.03" laneDensity="0.03" occupancy="0.01" waitingTime="0.00" timeLoss="1.46" speed="8.69" speedRelative="0.63" departed="1" arrived="0" entered="0" left="1" laneChangedFrom="0" laneChangedTo="0"/>
        <edge id="-1102829130" sampledSeconds="4.25" traveltime="2.48" overlapTraveltime="3.26" density="0.12" laneDensity="0.12" occupancy="0.05" waitingTime="0.00" timeLoss="1.77" speed="4.50" speedRelative="0.32" departed="2" arrived="0" entered="0" left="2" laneChangedFrom="0" laneChangedTo="0"/>
        <edge id="-1102829160" sampledSeconds="24.73" traveltime="7.40" overlapTraveltime="8.24" density="0.11" laneDensity="0.11" occupancy="0.05" waitingTime="0.00" timeLoss="7.73" speed="8.37" speedRelative="0.60" departed="0" arrived="0" entered="3" left="3" laneChangedFrom="0" laneChangedTo="0"/>
        <edge id="-1102829161" sampledSeconds="16.15" traveltime="4.82" overlapTraveltime="5.64" density="0.14" laneDensity="0.14" occupancy="0.06" waitingTime="0.00" timeLoss="6.96" speed="6.55" speedRelative="0.47" departed="1" arrived="0" entered="2" left="3" laneChangedFrom="0" laneChangedTo="0"/>
        <edge id="-1102829162" sampledSeconds="12.89" traveltime="3.95" overlapTraveltime="5.12" density="0.13" laneDensity="0.13" occupancy="0.06" waitingTime="0.00" timeLoss="6.62" speed="6.18" speedRelative="0.45" departed="3" arrived="0" entered="0" left="3" laneChangedFrom="0" laneChangedTo="0"/>
        <edge id="-1102833426#0" sampledSeconds="19.37" traveltime="7.88" overlapTraveltime="9.68" density="0.09" laneDensity="0.09" occupancy="0.04" waitingTime="4.00" timeLoss="9.78" speed="6.74" speedRelative="0.49" departed="0" arrived="0" entered="2" left="2" laneChangedFrom="0" laneChangedTo="0"/>
        <edge id="-1102833426#1" sampledSeconds="2.86" traveltime="2.94" overlapTraveltime="3.57" density="0.04" laneDensity="0.04" occupancy="0.02" waitingTime="0.00" timeLoss="1.60" speed="7.14" speedRelative="0.51" departed="1" arrived="0" entered="0" left="1" laneChangedFrom="0" laneChangedTo="0"/>
        <edge id="-1102833427" sampledSeconds="22.69" traveltime="3.50" overlapTraveltime="4.24" density="0.15" laneDensity="0.15" occupancy="0.07" waitingTime="0.00" timeLoss="2.28" speed="11.02" speedRelative="0.79" departed="6" arrived="0" entered="0" left="6" laneChangedFrom="0" laneChangedTo="0"/>