<?xml version="1.0" encoding="UTF-8"?>

<!-- generated on 2025-09-20 04:06:44 by Eclipse SUMO GUI Version 1.24.0
<sumoConfiguration xmlns:xsi="http://www.w3.org/2001/XMLSchema-instance" xsi:noNamespaceSchemaLocation="http://sumo.dlr.de/xsd/sumoConfiguration.xsd">

    <input>
        <net-file value="../Banglore_Silk_Junction_Map/osm.net.xml.gz"/>
        <route-files value="../Banglore_Silk_Junction_Map/osm_pt.rou.xml,../Banglore_Silk_Junction_Map/osm.passenger.trips.xml"/>
        <additional-files value="../Banglore_Silk_Junction_Map/osm.poly.xml.gz,../Banglore_Silk_Junction_Map/osm_stops.add.xml,../Banglore_Silk_Junction_Map/output.add.xml"/>
    </input>

    <output>
        <tripinfo-output value="../Banglore_Silk_Junction_Map/tripinfos.xml"/>
        <stop-output value="../Banglore_Silk_Junction_Map/stopinfos.xml"/>
        <statistic-output value="../Banglore_Silk_Junction_Map/stats.xml"/>
    </output>

    <processing>
        <ignore-route-errors value="true"/>
        <tls.actuated.jam-threshold value="30"/>
    </processing>

    <routing>
        <device.rerouting.adaptation-steps value="18"/>
        <device.rerouting.adaptation-interval value="10"/>
    </routing>

    <report>
        <verbose value="true"/>
        <duration-log.statistics value="true"/>
        <no-step-log value="true"/>
    </report>

    <traci_server>
        <remote-port value="8813"/>
    </traci_server>

    <gui_only>
        <gui-settings-file value="../Banglore_Silk_Junction_Map/osm.view.xml"/>
        <start value="true"/>
    </gui_only>

</sumoConfiguration>
-->

<tripinfos xmlns:xsi="http://www.w3.org/2001/XMLSchema-instance" xsi:noNamespaceSchemaLocation="http://sumo.dlr.de/xsd/tripinfo_file.xsd">
    <tripinfo id="veh36" depart="27.00" departLane="-290639793#10_0" departPos="5.10" departSpeed="0.00" departDelay="0.49" arrival="94.00" arrivalLane="-310665101#1_0" arrivalPos="13.94" arrivalSpeed="9.45" duration="67.00" routeLength="778.01" waitingTime="2.00" waitingCount="1" stopTime="0.00" timeLoss="22.12" rerouteNo="1" devices="tripinfo_veh36 routing_veh36" vType="veh_passenger" speedFactor="0.97" vaporized=""/>
    <tripinfo id="veh8" depart="6.00" departLane="310456181#0_0" departPos="5.10" departSpeed="0.00" departDelay="0.11" arrival="95.00" arrivalLane="-1101690261_0" arrivalPos="35.85" arrivalSpeed="12.32" duration="89.00" routeLength="848.76" waitingTime="0.00" waitingCount="0" stopTime="0.00" timeLoss="17.32" rerouteNo="1" devices="tripinfo_veh8 routing_veh8" vType="veh_passenger" speedFactor="0.94" vaporized=""/>
    <tripinfo id="veh25" depart="19.00" departLane="-147575198#3_0" departPos="5.10" departSpeed="0.00" departDelay="0.59" arrival="105.00" arrivalLane="309190304#0_0" arrivalPos="95.27" arrivalSpeed="10.92" duration="86.00" routeLength="771.75" waitingTime="0.00" waitingCount="0" stopTime="0.00" timeLoss="16.82" rerouteNo="1" devices="tripinfo_veh25 routing_veh25" vType="veh_passenger" speedFactor="0.87" vaporized=""/>
    <tripinfo id="veh92" depart="68.00" departLane="1165661287#0_0" departPos="5.10" departSpeed="0.00" departDelay="0.25" arrival="115.00" arrivalLane="291973715#2_0" arrivalPos="8.42" arrivalSpeed="10.39" duration="47.00" routeLength="596.54" waitingTime="0.00" waitingCount="0" stopTime="0.00" timeLoss="10.55" rerouteNo="1" devices="tripinfo_veh92 routing_veh92" vType="veh_passenger" speedFactor="0.83" vaporized=""/>
    <tripinfo id="veh6" depart="5.00" departLane="-1102833429_0" departPos="5.10" departSpeed="13.14" departDelay="0.58" arrival="116.00" arrivalLane="-28120400#7_0" arrivalPos="20.33" arrivalSpeed="8.94" duration="111.00" routeLength="1527.54" waitingTime="8.00" waitingCount="1" stopTime="0.00" timeLoss="32.70" rerouteNo="1" devices="tripinfo_veh6 routing_veh6" vType="veh_passenger" speedFactor="1.05" vaporized=""/>
    <tripinfo id="veh44" depart="33.00" departLane="799592387_0" departPos="5.10" departSpeed="14.49" departDelay="0.60" arrival="116.00" arrivalLane="558683371_0" arrivalPos="50.13" arrivalSpeed="14.04" duration="83.00" routeLength="836.24" waitingTime="0.00" waitingCount="0" stopTime="0.00" timeLoss="20.41" rerouteNo="1" devices="tripinfo_veh44 routing_veh44" vType="veh_passenger" speedFactor="1.04" vaporized=""/>
    <tripinfo id="veh2" depart="2.00" departLane="27935848#2_0" departPos="5.10" departSpeed="0.00" departDelay="0.53" arrival="123.00" arrivalLane="27936042#0_0" arrivalPos="119.83" arrivalSpeed="13.11" duration="121.00" routeLength="1403.32" waitingTime="2.00" waitingCount="1" stopTime="0.00" timeLoss="31.91" rerouteNo="1" devices="tripinfo_veh2 routing_veh2" vType="veh_passenger" speedFactor="1.01" vaporized=""/>
    <tripinfo id="veh42" depart="31.00" departLane="-1110211978_0" departPos="5.10" departSpeed="9.68" departDelay="0.07" arrival="125.00" arrivalLane="-81254203_0" arrivalPos="143.43" arrivalSpeed="14.58" duration="94.00" routeLength="1150.84" waitingTime="0.00" waitingCount="0" stopTime="0.00" timeLoss="21.51" rerouteNo="1" devices="tripinfo_veh42 routing_veh42" vType="veh_passenger" speedFactor="1.09" vaporized=""/>
    <tripinfo id="veh53" depart="40.00" departLane="128220170#2_0" departPos="5.10" departSpeed="0.00" departDelay="0.97" arrival="132.00" arrivalLane="-27934854#9_0" arrivalPos="121.98" arrivalSpeed="23.60" duration="92.00" routeLength="1266.98" waitingTime="0.00" waitingCount="0" stopTime="0.00" timeLoss="29.21" rerouteNo="1" devices="tripinfo_veh53 routing_veh53" vType="veh_passenger" speedFactor="1.10" vaporized=""/>
    <tripinfo id="veh95" depart="70.00" departLane="1110178624#1_1" departPos="0.20" departSpeed="0.00" departDelay="0.04" arrival="135.00" arrivalLane="310456163_0" arrivalPos="33.14" arrivalSpeed="12.51" duration="65.00" routeLength="637.22" waitingTime="0.00" waitingCount="0" stopTime="0.00" timeLoss="17.40" rerouteNo="1" devices="tripinfo_veh95 routing_veh95" vType="veh_passenger" speedFactor="1.06" vaporized=""/>
    <tripinfo id="veh55" depart="41.00" departLane="-1101696108_0" departPos="5.10" departSpeed="9.90" departDelay="0.50" arrival="137.00" arrivalLane="694981019_0" arrivalPos="93.82" arrivalSpeed="13.39" duration="96.00" routeLength="1199.37" waitingTime="0.00" waitingCount="0" stopTime="0.00" timeLoss="19.51" rerouteNo="1" devices="tripinfo_veh55 routing_veh55" vType="veh_passenger" speedFactor="1.00" vaporized=""/>
    <tripinfo id="veh102" depart="76.00" departLane="-694302718_0" departPos="5.10" departSpeed="13.45" departDelay="0.89" arrival="139.00" arrivalLane="1427462048_0" arrivalPos="23.30" arrivalSpeed="12.58" duration="63.00" routeLength="650.41" waitingTime="0.00" waitingCount="0" stopTime="0.00" timeLoss="17.17" rerouteNo="1" devices="tripinfo_veh102 routing_veh102" vType="veh_passenger" speedFactor="0.97" vaporized=""/>
    <tripinfo id="veh30" depart="23.00" departLane="-27936029#0_0" departPos="5.10" departSpeed="0.00" departDelay="0.91" arrival="142.00" arrivalLane="-1183377618_0" arrivalPos="34.73" arrivalSpeed="12.25" duration="119.00" routeLength="1330.64" waitingTime="0.00" waitingCount="0" stopTime="0.00" timeLoss="32.55" rerouteNo="1" devices="tripinfo_veh30 routing_veh30" vType="veh_passenger" speedFactor="1.18" vaporized=""/>
    <tripinfo id="veh61" depart="45.00" departLane="-794381851_0" departPos="5.10" departSpeed="15.55" departDelay="0.08" arrival="143.00" arrivalLane="1335927786#3_0" arrivalPos="54.31" arrivalSpeed="14.39" duration="98.00" routeLength="1255.77" waitingTime="0.00" waitingCount="0" stopTime="0.00" timeLoss="15.71" rerouteNo="1" devices="tripinfo_veh61 routing_veh61" vType="veh_passenger" speedFactor="1.12" vaporized=""/>
    <tripinfo id="veh14" depart="11.00" departLane="1109895159_0" departPos="5.10" departSpeed="13.67" departDelay="0.69" arrival="146.00" arrivalLane="800240405_0" arrivalPos="24.61" arrivalSpeed="10.88" duration="135.00" routeLength="1473.04" waitingTime="16.00" waitingCount="1" stopTime="0.00" timeLoss="49.04" rerouteNo="1" devices="tripinfo_veh14 routing_veh14" vType="veh_passenger" speedFactor="0.99" vaporized=""/>
    <tripinfo id="veh1" depart="1.00" departLane="-291973730#6_0" departPos="5.10" departSpeed="0.00" departDelay="0.26" arrival="149.00" arrivalLane="-309190308_0" arrivalPos="94.17" arrivalSpeed="11.97" duration="148.00" routeLength="1507.13" waitingTime="18.00" waitingCount="2" stopTime="0.00" timeLoss="53.09" rerouteNo="1" devices="tripinfo_veh1 routing_veh1" vType="veh_passenger" speedFactor="0.94" vaporized=""/>
    <tripinfo id="veh41" depart="31.00" departLane="309190306_0" departPos="5.10" departSpeed="13.29" departDelay="0.81" arrival="154.00" arrivalLane="1102833433_0" arrivalPos="25.43" arrivalSpeed="12.74" duration="123.00" routeLength="1893.00" waitingTime="0.00" waitingCount="0" stopTime="0.00" timeLoss="15.76" rerouteNo="1" devices="tripinfo_veh41 routing_veh41" vType="veh_passenger" speedFactor="0.96" vaporized=""/>
    <tripinfo id="veh85" depart="63.00" departLane="995122863_0" departPos="5.10" departSpeed="9.39" departDelay="0.41" arrival="164.00" arrivalLane="40696194#1_0" arrivalPos="22.71" arrivalSpeed="12.98" duration="101.00" routeLength="1318.47" waitingTime="0.00" waitingCount="0" stopTime="0.00" timeLoss="27.18" rerouteNo="1" devices="tripinfo_veh85 routing_veh85" vType="veh_passenger" speedFactor="0.98" vaporized=""/>
    <tripinfo id="veh51" depart="38.00" departLane="631197944#0_2" departPos="5.10" departSpeed="0.00" departDelay="0.44" arrival="166.00" arrivalLane="610166550#10_1" arrivalPos="55.61" arrivalSpeed="12.48" duration="128.00" routeLength="2296.20" waitingTime="4.00" waitingCount="1" stopTime="0.00" timeLoss="34.69" rerouteNo="1" devices="tripinfo_veh51 routing_veh51" vType="veh_passenger" speedFactor="1.17" vaporized=""/>
    <tripinfo id="veh33" depart="25.00" departLane="40696206#0_0" departPos="5.10" departSpeed="0.00" departDelay="0.70" arrival="167.00" arrivalLane="-59482034#1_0" arrivalPos="184.34" arrivalSpeed="6.39" duration="142.00" routeLength="1549.46" waitingTime="0.00" waitingCount="0" stopTime="0.00" timeLoss="27.26" rerouteNo="1" devices="tripinfo_veh33 routing_veh33" vType="veh_passenger" speedFactor="1.17" vaporized=""/>
    <tripinfo id="veh140" depart="104.00" departLane="-310667984#1_0" departPos="5.10" departSpeed="15.47" departDelay="0.91" arrival="167.00" arrivalLane="694981025_0" arrivalPos="59.97" arrivalSpeed="14.92" duration="63.00" routeLength="790.61" waitingTime="0.00" waitingCount="0" stopTime="0.00" timeLoss="11.97" rerouteNo="1" devices="tripinfo_veh140 routing_veh140" vType="veh_passenger" speedFactor="1.11" vaporized=""/>
    <tripinfo id="veh175" depart="129.00" departLane="-778898123_0" departPos="5.10" departSpeed="12.77" departDelay="0.13" arrival="167.00" arrivalLane="694302721_0" arrivalPos="37.26" arrivalSpeed="12.56" duration="38.00" routeLength="436.57" waitingTime="0.00" waitingCount="0" stopTime="0.00" timeLoss="9.09" rerouteNo="1" devices="tripinfo_veh175 routing_veh175" vType="veh_passenger" speedFactor="0.92" vaporized=""/>
    <tripinfo id="veh19" depart="14.00" departLane="-1185468746_0" departPos="5.10" departSpeed="16.09" departDelay="0.01" arrival="168.00" arrivalLane="-309618845#9_0" arrivalPos="20.64" arrivalSpeed="13.25" duration="154.00" routeLength="2149.60" waitingTime="0.00" waitingCount="0" stopTime="0.00" timeLoss="25.62" rerouteNo="1" devices="tripinfo_veh19 routing_veh19" vType="veh_passenger" speedFactor="1.16" vaporized=""/>
    <tripinfo id="veh147" depart="109.00" departLane="309191381_0" departPos="5.10" departSpeed="0.00" departDelay="0.75" arrival="169.00" arrivalLane="-309193964#0_0" arrivalPos="23.26" arrivalSpeed="12.12" duration="60.00" routeLength="840.22" waitingTime="0.00" waitingCount="0" stopTime="0.00" timeLoss="14.02" rerouteNo="1" devices="tripinfo_veh147 routing_veh147" vType="veh_passenger" speedFactor="1.00" vaporized=""/>
    <tripinfo id="veh139" depart="103.00" departLane="-1102829162_0" departPos="5.10" departSpeed="11.69" departDelay="0.64" arrival="171.00" arrivalLane="309194360_0" arrivalPos="41.73" arrivalSpeed="12.51" duration="68.00" routeLength="701.96" waitingTime="0.00" waitingCount="0" stopTime="0.00" timeLoss="12.99" rerouteNo="1" devices="tripinfo_veh139 routing_veh139" vType="veh_passenger" speedFactor="0.95" vaporized=""/>
    <tripinfo id="veh134" depart="99.00" departLane="-28120400#12_0" departPos="5.10" departSpeed="0.00" departDelay="0.32" arrival="172.00" arrivalLane="-147561896#0_0" arrivalPos="55.79" arrivalSpeed="16.23" duration="73.00" routeLength="1262.81" waitingTime="0.00" waitingCount="0" stopTime="0.00" timeLoss="26.99" rerouteNo="1" devices="tripinfo_veh134 routing_veh134" vType="veh_passenger" speedFactor="1.23" vaporized=""/>
    <tripinfo id="veh31" depart="23.00" departLane="-310665081#0_0" departPos="5.10" departSpeed="0.00" departDelay="0.17" arrival="182.00" arrivalLane="-32267142#1_0" arrivalPos="37.03" arrivalSpeed="25.56" duration="159.00" routeLength="2466.05" waitingTime="22.00" waitingCount="3" stopTime="0.00" timeLoss="63.70" rerouteNo="1" devices="tripinfo_veh31 routing_veh31" vType="veh_passenger" speedFactor="1.15" vaporized=""/>
    <tripinfo id="veh4" depart="3.00" departLane="-694302725_0" departPos="5.10" departSpeed="14.31" departDelay="0.05" arrival="185.00" arrivalLane="-116061945#2_0" arrivalPos="18.43" arrivalSpeed="7.65" duration="182.00" routeLength="2400.35" waitingTime="0.00" waitingCount="0" stopTime="0.00" timeLoss="33.23" rerouteNo="1" devices="tripinfo_veh4 routing_veh4" vType="veh_passenger" speedFactor="1.03" vaporized=""/>
    <tripinfo id="pt_subway_Yellow:0.3" depart="185.00" departLane="607901273_0" departPos="36.25" departSpeed="0.00" departDelay="18.20" arrival="185.00" arrivalLane="607901273_0" arrivalPos="2623.93" arrivalSpeed="0.00" duration="0.00" routeLength="2587.68" waitingTime="0.00" waitingCount="0" stopTime="0.00" timeLoss="0.00" rerouteNo="0" devices="tripinfo_pt_subway_Yellow:0.3" vType="pt_subway" speedFactor="1.00" vaporized="teleport"/>
    <tripinfo id="pt_subway_Yellow:0.4" depart="185.00" departLane="607901273_0" departPos="36.25" departSpeed="0.00" departDelay="17.60" arrival="185.00" arrivalLane="607901273_0" arrivalPos="2623.93" arrivalSpeed="0.00" duration="0.00" routeLength="2587.68" waitingTime="0.00" waitingCount="0" stopTime="0.00" timeLoss="0.00" rerouteNo="0" devices="tripinfo_pt_subway_Yellow:0.4" vType="pt_subway" speedFactor="1.00" vaporized="teleport"/>
    <tripinfo id="pt_subway_Yellow:0.5" depart="185.00" departLane="607901273_0" departPos="36.25" departSpeed="0.00" departDelay="17.00" arrival="185.00" arrivalLane="607901273_0" arrivalPos="2623.93" arrivalSpeed="0.00" duration="0.00" routeLength="2587.68" waitingTime="0.00" waitingCount="0" stopTime="0.00" timeLoss="0.00" rerouteNo="0" devices="tripinfo_pt_subway_Yellow:0.5" vType="pt_subway" speedFactor="1.00" vaporized="teleport"/>
    <tripinfo id="pt_subway_Yellow:0.6" depart="185.00" departLane="607901273_0" departPos="36.25" departSpeed="0.00" departDelay="16.40" arrival="185.00" arrivalLane="607901273_0" arrivalPos="2623.93" arrivalSpeed="0.00" duration="0.00" routeLength="2587.68" waitingTime="0.00" waitingCount="0" stopTime="0.00" timeLoss="0.00" rerouteNo="0" devices="tripinfo_pt_subway_Yellow:0.6" vType="pt_subway" speedFactor="1.00" vaporized="teleport"/>
    <tripinfo id="pt_subway_Yellow:0.7" depart="185.00" departLane="607901273_0" departPos="36.25" departSpeed="0.00" departDelay="15.80" arrival="185.00" arrivalLane="607901273_0" arrivalPos="2623.93" arrivalSpeed="0.00" duration="0.00" routeLength="2587.68" waitingTime="0.00" waitingCount="0" stopTime="0.00" timeLoss="0.00" rerouteNo="0" devices="tripinfo_pt_subway_Yellow:0.7" vType="pt_subway" speedFactor="1.00" vaporized="teleport"/>
    <tripinfo id="pt_subway_Yellow:0.8" depart="185.00" departLane="607901273_0" departPos="36.25" departSpeed="0.00" departDelay="15.20" arrival="185.00" arrivalLane="607901273_0" arrivalPos="2623.93" arrivalSpeed="0.00" duration="0.00" routeLength="2587.68" waitingTime="0.00" waitingCount="0" stopTime="0.00" timeLoss="0.00" rerouteNo="0" devices="tripinfo_pt_subway_Yellow:0.8" vType="pt_subway" speedFactor="1.00" vaporized="teleport"/>
    <tripinfo id="pt_subway_Yellow:0.9" depart="185.00" departLane="607901273_0" departPos="36.25" departSpeed="0.00" departDelay="14.60" arrival="185.00" arrivalLane="607901273_0" arrivalPos="2623.93" arrivalSpeed="0.00" duration="0.00" routeLength="2587.68" waitingTime="0.00" waitingCount="0" stopTime="0.00" timeLoss="0.00" rerouteNo="0" devices="tripinfo_pt_subway_Yellow:0.9" vType="pt_subway" speedFactor="1.00" vaporized="teleport"/>
    <tripinfo id="pt_subway_Yellow:0.10" depart="185.00" departLane="607901273_0" departPos="36.25" departSpeed="0.00" departDelay="14.00" arrival="185.00" arrivalLane="607901273_0" arrivalPos="2623.93" arrivalSpeed="0.00" duration="0.00" routeLength="2587.68" waitingTime="0.00" waitingCount="0" stopTime="0.00" timeLoss="0.00" rerouteNo="0" devices="tripinfo_pt_subway_Yellow:0.10" vType="pt_subway" speedFactor="1.00" vaporized="teleport"/>
    <tripinfo id="pt_subway_Yellow:0.11" depart="185.00" departLane="607901273_0" departPos="36.25" departSpeed="0.00" departDelay="13.40" arrival="185.00" arrivalLane="607901273_0" arrivalPos="2623.93" arrivalSpeed="0.00" duration="0.00" routeLength="2587.68" waitingTime="0.00" waitingCount="0" stopTime="0.00" timeLoss="0.00" rerouteNo="0" devices="tripinfo_pt_subway_Yellow:0.11" vType="pt_subway" speedFactor="1.00" vaporized="teleport"/>
    <tripinfo id="pt_subway_Yellow:0.12" depart="185.00" departLane="607901273_0" departPos="36.25" departSpeed="0.00" departDelay="12.80" arrival="185.00" arrivalLane="607901273_0" arrivalPos="2623.93" arrivalSpeed="0.00" duration="0.00" routeLength="2587.68" waitingTime="0.00" waitingCount="0" stopTime="0.00" timeLoss="0.00" rerouteNo="0" devices="tripinfo_pt_subway_Yellow:0.12" vType="pt_subway" speedFactor="1.00" vaporized="teleport"/>
    <tripinfo id="pt_subway_Yellow:0.13" depart="185.00" departLane="607901273_0" departPos="36.25" departSpeed="0.00" departDelay="12.20" arrival="185.00" arrivalLane="607901273_0" arrivalPos="2623.93" arrivalSpeed="0.00" duration="0.00" routeLength="2587.68" waitingTime="0.00" waitingCount="0" stopTime="0.00" timeLoss="0.00" rerouteNo="0" devices="tripinfo_pt_subway_Yellow:0.13" vType="pt_subway" speedFactor="1.00" vaporized="teleport"/>
    <tripinfo id="pt_subway_Yellow:0.14" depart="185.00" departLane="607901273_0" departPos="36.25" departSpeed="0.00" departDelay="11.60" arrival="185.00" arrivalLane="607901273_0" arrivalPos="2623.93" arrivalSpeed="0.00" duration="0.00" routeLength="2587.68" waitingTime="0.00" waitingCount="0" stopTime="0.00" timeLoss="0.00" rerouteNo="0" devices="tripinfo_pt_subway_Yellow:0.14" vType="pt_subway" speedFactor="1.00" vaporized="teleport"/>
    <tripinfo id="pt_subway_Yellow:0.15" depart="185.00" departLane="607901273_0" departPos="36.25" departSpeed="0.00" departDelay="11.00" arrival="185.00" arrivalLane="607901273_0" arrivalPos="2623.93" arrivalSpeed="0.00" duration="0.00" routeLength="2587.68" waitingTime="0.00" waitingCount="0" stopTime="0.00" timeLoss="0.00" rerouteNo="0" devices="tripinfo_pt_subway_Yellow:0.15" vType="pt_subway" speedFactor="1.00" vaporized="teleport"/>
    <tripinfo id="pt_subway_Yellow:0.16" depart="185.00" departLane="607901273_0" departPos="36.25" departSpeed="0.00" departDelay="10.40" arrival="185.00" arrivalLane="607901273_0" arrivalPos="2623.93" arrivalSpeed="0.00" duration="0.00" routeLength="2587.68" waitingTime="0.00" waitingCount="0" stopTime="0.00" timeLoss="0.00" rerouteNo="0" devices="tripinfo_pt_subway_Yellow:0.16" vType="pt_subway" speedFactor="1.00" vaporized="teleport"/>
    <tripinfo id="pt_subway_Yellow:0.17" depart="185.00" departLane="607901273_0" departPos="36.25" departSpeed="0.00" departDelay="9.80" arrival="185.00" arrivalLane="607901273_0" arrivalPos="2623.93" arrivalSpeed="0.00" duration="0.00" routeLength="2587.68" waitingTime="0.00" waitingCount="0" stopTime="0.00" timeLoss="0.00" rerouteNo="0" devices="tripinfo_pt_subway_Yellow:0.17" vType="pt_subway" speedFactor="1.00" vaporized="teleport"/>
    <tripinfo id="pt_subway_Yellow:0.18" depart="185.00" departLane="607901273_0" departPos="36.25" departSpeed="0.00" departDelay="9.20" arrival="185.00" arrivalLane="607901273_0" arrivalPos="2623.93" arrivalSpeed="0.00" duration="0.00" routeLength="2587.68" waitingTime="0.00" waitingCount="0" stopTime="0.00" timeLoss="0.00" rerouteNo="0" devices="tripinfo_pt_subway_Yellow:0.18" vType="pt_subway" speedFactor="1.00" vaporized="teleport"/>
    <tripinfo id="pt_subway_Yellow:0.19" depart="185.00" departLane="607901273_0" departPos="36.25" departSpeed="0.00" departDelay="8.60" arrival="185.00" arrivalLane="607901273_0" arrivalPos="2623.93" arrivalSpeed="0.00" duration="0.00" routeLength="2587.68" waitingTime="0.00" waitingCount="0" stopTime="0.00" timeLoss="0.00" rerouteNo="0" devices="tripinfo_pt_subway_Yellow:0.19" vType="pt_subway" speedFactor="1.00" vaporized="teleport"/>
    <tripinfo id="pt_subway_Yellow:0.20" depart="185.00" departLane="607901273_0" departPos="36.25" departSpeed="0.00" departDelay="8.00" arrival="185.00" arrivalLane="607901273_0" arrivalPos="2623.93" arrivalSpeed="0.00" duration="0.00" routeLength="2587.68" waitingTime="0.00" waitingCount="0" stopTime="0.00" timeLoss="0.00" rerouteNo="0" devices="tripinfo_pt_subway_Yellow:0.20" vType="pt_subway" speedFactor="1.00" vaporized="teleport"/>
    <tripinfo id="pt_subway_Yellow:0.21" depart="185.00" departLane="607901273_0" departPos="36.25" departSpeed="0.00" departDelay="7.40" arrival="185.00" arrivalLane="607901273_0" arrivalPos="2623.93" arrivalSpeed="0.00" duration="0.00" routeLength="2587.68" waitingTime="0.00" waitingCount="0" stopTime="0.00" timeLoss="0.00" rerouteNo="0" devices="tripinfo_pt_subway_Yellow:0.21" vType="pt_subway" speedFactor="1.00" vaporized="teleport"/>
    <tripinfo id="pt_subway_Yellow:0.22" depart="185.00" departLane="607901273_0" departPos="36.25" departSpeed="0.00" departDelay="6.80" arrival="185.00" arrivalLane="607901273_0" arrivalPos="2623.93" arrivalSpeed="0.00" duration="0.00" routeLength="2587.68" waitingTime="0.00" waitingCount="0" stopTime="0.00" timeLoss="0.00" rerouteNo="0" devices="tripinfo_pt_subway_Yellow:0.22" vType="pt_subway" speedFactor="1.00" vaporized="teleport"/>
    <tripinfo id="pt_subway_Yellow:0.23" depart="185.00" departLane="607901273_0" departPos="36.25" departSpeed="0.00" departDelay="6.20" arrival="185.00" arrivalLane="607901273_0" arrivalPos="2623.93" arrivalSpeed="0.00" duration="0.00" routeLength="2587.68" waitingTime="0.00" waitingCount="0" stopTime="0.00" timeLoss="0.00" rerouteNo="0" devices="tripinfo_pt_subway_Yellow:0.23" vType="pt_subway" speedFactor="1.00" vaporized="teleport"/>
    <tripinfo id="pt_subway_Yellow:0.24" depart="185.00" departLane="607901273_0" departPos="36.25" departSpeed="0.00" departDelay="5.60" arrival="185.00" arrivalLane="607901273_0" arrivalPos="2623.93" arrivalSpeed="0.00" duration="0.00" routeLength="2587.68" waitingTime="0.00" waitingCount="0" stopTime="0.00" timeLoss="0.00" rerouteNo="0" devices="tripinfo_pt_subway_Yellow:0.24" vType="pt_subway" speedFactor="1.00" vaporized="teleport"/>
    <tripinfo id="pt_subway_Yellow:0.25" depart="185.00" departLane="607901273_0" departPos="36.25" departSpeed="0.00" departDelay="5.00" arrival="185.00" arrivalLane="607901273_0" arrivalPos="2623.93" arrivalSpeed="0.00" duration="0.00" routeLength="2587.68" waitingTime="0.00" waitingCount="0" stopTime="0.00" timeLoss="0.00" rerouteNo="0" devices="tripinfo_pt_subway_Yellow:0.25" vType="pt_subway" speedFactor="1.00" vaporized="teleport"/>
    <tripinfo id="pt_subway_Yellow:0.26" depart="185.00" departLane="607901273_0" departPos="36.25" departSpeed="0.00" departDelay="4.40" arrival="185.00" arrivalLane="607901273_0" arrivalPos="2623.93" arrivalSpeed="0.00" duration="0.00" routeLength="2587.68" waitingTime="0.00" waitingCount="0" stopTime="0.00" timeLoss="0.00" rerouteNo="0" devices="tripinfo_pt_subway_Yellow:0.26" vType="pt_subway" speedFactor="1.00" vaporized="teleport"/>
    <tripinfo id="pt_subway_Yellow:0.27" depart="185.00" departLane="607901273_0" departPos="36.25" departSpeed="0.00" departDelay="3.80" arrival="185.00" arrivalLane="607901273_0" arrivalPos="2623.93" arrivalSpeed="0.00" duration="0.00" routeLength="2587.68" waitingTime="0.00" waitingCount="0" stopTime="0.00" timeLoss="0.00" rerouteNo="0" devices="tripinfo_pt_subway_Yellow:0.27" vType="pt_subway" speedFactor="1.00" vaporized="teleport"/>
    <tripinfo id="pt_subway_Yellow:0.28" depart="185.00" departLane="607901273_0" departPos="36.25" departSpeed="0.00" departDelay="3.20" arrival="185.00" arrivalLane="607901273_0" arrivalPos="2623.93" arrivalSpeed="0.00" duration="0.00" routeLength="2587.68" waitingTime="0.00" waitingCount="0" stopTime="0.00" timeLoss="0.00" rerouteNo="0" devices="tripinfo_pt_subway_Yellow:0.28" vType="pt_subway" speedFactor="1.00" vaporized="teleport"/>
    <tripinfo id="pt_subway_Yellow:0.29" depart="185.00" departLane="607901273_0" departPos="36.25" departSpeed="0.00" departDelay="2.60" arrival="185.00" arrivalLane="607901273_0" arrivalPos="2623.93" arrivalSpeed="0.00" duration="0.00" routeLength="2587.68" waitingTime="0.00" waitingCount="0" stopTime="0.00" timeLoss="0.00" rerouteNo="0" devices="tripinfo_pt_subway_Yellow:0.29" vType="pt_subway" speedFactor="1.00" vaporized="teleport"/>
    <tripinfo id="pt_subway_Yellow:0.30" depart="185.00" departLane="607901273_0" departPos="36.25" departSpeed="0.00" departDelay="2.00" arrival="185.00" arrivalLane="607901273_0" arrivalPos="2623.93" arrivalSpeed="0.00" duration="0.00" routeLength="2587.68" waitingTime="0.00" waitingCount="0" stopTime="0.00" timeLoss="0.00" rerouteNo="0" devices="tripinfo_pt_subway_Yellow:0.30" vType="pt_subway" speedFactor="1.00" vaporized="teleport"/>
    <tripinfo id="pt_subway_Yellow:0.31" depart="185.00" departLane="607901273_0" departPos="36.25" departSpeed="0.00" departDelay="1.40" arrival="185.00" arrivalLane="607901273_0" arrivalPos="2623.93" arrivalSpeed="0.00" duration="0.00" routeLength="2587.68" waitingTime="0.00" waitingCount="0" stopTime="0.00" timeLoss="0.00" rerouteNo="0" devices="tripinfo_pt_subway_Yellow:0.31" vType="pt_subway" speedFactor="1.00" vaporized="teleport"/>
    <tripinfo id="pt_subway_Yellow:0.32" depart="185.00" departLane="607901273_0" departPos="36.25" departSpeed="0.00" departDelay="0.80" arrival="185.00" arrivalLane="607901273_0" arrivalPos="2623.93" arrivalSpeed="0.00" duration="0.00" routeLength="2587.68" waitingTime="0.00" waitingCount="0" stopTime="0.00" timeLoss="0.00" rerouteNo="0" devices="tripinfo_pt_subway_Yellow:0.32" vType="pt_subway" speedFactor="1.00" vaporized="teleport"/>
    <tripinfo id="pt_subway_Yellow:0.33" depart="185.00" departLane="607901273_0" departPos="36.25" departSpeed="0.00" departDelay="0.20" arrival="185.00" arrivalLane="607901273_0" arrivalPos="2623.93" arrivalSpeed="0.00" duration="0.00" routeLength="2587.68" waitingTime="0.00" waitingCount="0" stopTime="0.00" timeLoss="0.00" rerouteNo="0" devices="tripinfo_pt_subway_Yellow:0.33" vType="pt_subway" speedFactor="1.00" vaporized="teleport"/>
    <tripinfo id="pt_subway_Yellow:0.34" depart="186.00" departLane="607901273_0" departPos="36.25" departSpeed="0.00" departDelay="0.60" arrival="186.00" arrivalLane="607901273_0" arrivalPos="2623.93" arrivalSpeed="0.00" duration="0.00" routeLength="2587.68" waitingTime="0.00" waitingCount="0" stopTime="0.00" timeLoss="0.00" rerouteNo="0" devices="tripinfo_pt_subway_Yellow:0.34" vType="pt_subway" speedFactor="1.00" vaporized="teleport"/>
    <tripinfo id="pt_subway_Yellow:0.35" depart="186.00" departLane="607901273_0" departPos="36.25" departSpeed="0.00" departDelay="0.00" arrival="186.00" arrivalLane="607901273_0" arrivalPos="2623.93" arrivalSpeed="0.00" duration="0.00" routeLength="2587.68" waitingTime="0.00" waitingCount="0" stopTime="0.00" timeLoss="0.00" rerouteNo="0" devices="tripinfo_pt_subway_Yellow:0.35" vType="pt_subway" speedFactor="1.00" vaporized="teleport"/>
    <tripinfo id="veh43" depart="32.00" departLane="97187758_0" departPos="5.10" departSpeed="0.00" departDelay="0.34" arrival="188.00" arrivalLane="1254626825_0" arrivalPos="2.53" arrivalSpeed="8.72" duration="156.00" routeLength="2383.28" waitingTime="0.00" waitingCount="0" stopTime="0.00" timeLoss="35.33" rerouteNo="1" devices="tripinfo_veh43 routing_veh43" vType="veh_passenger" speedFactor="1.04" vaporized=""/>
    <tripinfo id="veh81" depart="60.00" departLane="-694302725_0" departPos="5.10" departSpeed="13.86" departDelay="0.35" arrival="188.00" arrivalLane="-383732626_0" arrivalPos="47.48" arrivalSpeed="2.09" duration="128.00" routeLength="1300.05" waitingTime="0.00" waitingCount="0" stopTime="0.00" timeLoss="29.36" rerouteNo="1" devices="tripinfo_veh81 routing_veh81" vType="veh_passenger" speedFactor="1.00" vaporized=""/>
    <tripinfo id="pt_subway_Yellow:0.36" depart="187.00" departLane="607901273_0" departPos="36.25" departSpeed="0.00" departDelay="0.40" arrival="187.00" arrivalLane="607901273_0" arrivalPos="2623.93" arrivalSpeed="0.00" duration="0.00" routeLength="2587.68" waitingTime="0.00" waitingCount="0" stopTime="0.00" timeLoss="0.00" rerouteNo="0" devices="tripinfo_pt_subway_Yellow:0.36" vType="pt_subway" speedFactor="1.00" vaporized="teleport"/>
    <tripinfo id="pt_subway_Yellow:0.37" depart="188.00" departLane="607901273_0" departPos="36.25" departSpeed="0.00" departDelay="0.80" arrival="188.00" arrivalLane="607901273_0" arrivalPos="2623.93" arrivalSpeed="0.00" duration="0.00" routeLength="2587.68" waitingTime="0.00" waitingCount="0" stopTime="0.00" timeLoss="0.00" rerouteNo="0" devices="tripinfo_pt_subway_Yellow:0.37" vType="pt_subway" speedFactor="1.00" vaporized="teleport"/>