<?xml version="1.0" encoding="UTF-8"?>

<!-- generated on 2025-09-21 00:47:21 by Eclipse SUMO GUI Version 1.24.0
<sumoConfiguration xmlns:xsi="http://www.w3.org/2001/XMLSchema-instance" xsi:noNamespaceSchemaLocation="http://sumo.dlr.de/xsd/sumoConfiguration.xsd">

    <input>
        <net-file value="C:\Users\sujit\Desktop\SIH25\smart-traffic-system\Banglore_Silk_Junction\osm.net.xml.gz"/>
        <route-files value="C:\Users\sujit\Desktop\SIH25\smart-traffic-system\Banglore_Silk_Junction\osm.routes.xml"/>
        <additional-files value="C:\Users\sujit\Desktop\SIH25\smart-traffic-system\Banglore_Silk_Junction\osm.poly.xml.gz,C:\Users\sujit\Desktop\SIH25\smart-traffic-system\Banglore_Silk_Junction\output.add.xml"/>
    </input>

    <output>
        <tripinfo-output value="C:\Users\sujit\Desktop\SIH25\smart-traffic-system\Banglore_Silk_Junction\tripinfos.xml"/>
        <statistic-output value="C:\Users\sujit\Desktop\SIH25\smart-traffic-system\Banglore_Silk_Junction\stats.xml"/>
    </output>

    <processing>
        <ignore-route-errors value="true"/>
        <tls.actuated.jam-threshold value="30"/>
    </processing>

    <routing>
        <device.rerouting.adaptation-steps value="18"/>
        <device.rerouting.adaptation-interval value="10"/>
    </routing>

    <report>
        <verbose value="true"/>
        <duration-log.statistics value="true"/>
        <no-step-log value="true"/>
    </report>

    <gui_only>
        <gui-settings-file value="C:\Users\sujit\Desktop\SIH25\smart-traffic-system\Banglore_Silk_Junction\osm.view.xml"/>
    </gui_only>

</sumoConfiguration>
-->

<meandata xmlns:xsi="http://www.w3.org/2001/XMLSchema-instance" xsi:noNamespaceSchemaLocation="http://sumo.dlr.de/xsd/meandata_file.xsd">
    <interval begin="0.00" end="1314.00" id="wizard_example">
        <edge id="-1030669035" sampledSeconds="32.08" traveltime="5.77" overlapTraveltime="7.27" density="0.77" laneDensity="0.77" occupancy="0.33" waitingTime="0.00" timeLoss="15.34" speed="5.06" speedRelative="0.36" departed="3" arrived="2" entered="2" left="3" laneChangedFrom="0" laneChangedTo="0"/>
        <edge id="-1042112410" sampledSeconds="871.65" traveltime="130.88" overlapTraveltime="124.87" density="133.33" laneDensity="133.33" occupancy="33.60" waitingTime="848.00" timeLoss="868.86" speed="0.04" speedRelative="0.00" departed="1" arrived="0" entered="9" left="9" laneChangedFrom="0" laneChangedTo="0" teleported="1"/>
        <edge id="-1063933802#0" sampledSeconds="152.43" traveltime="17.77" overlapTraveltime="19.15" density="0.90" laneDensity="0.90" occupancy="0.43" waitingTime="44.00" timeLoss="72.51" speed="7.00" speedRelative="0.50" departed="1" arrived="1" entered="7" left="7" laneChangedFrom="0" laneChangedTo="0"/>
        <edge id="-1063933802#1" sampledSeconds="50.10" traveltime="6.86" overlapTraveltime="7.23" density="0.53" laneDensity="0.53" occupancy="0.24" waitingTime="0.00" timeLoss="12.55" speed="10.58" speedRelative="0.76" departed="1" arrived="0" entered="6" left="7" laneChangedFrom="0" laneChangedTo="0"/>
        <edge id="-1063933802#2" sampledSeconds="6.94" traveltime="3.10" overlapTraveltime="3.47" density="0.16" laneDensity="0.16" occupancy="0.07" waitingTime="0.00" timeLoss="1.73" speed="10.67" speedRelative="0.77" departed="0" arrived="0" entered="2" left="2" laneChangedFrom="0" laneChangedTo="0"/>
        <edge id="-1063933802#3" sampledSeconds="16.07" traveltime="7.43" overlapTraveltime="8.04" density="0.19" laneDensity="0.19" occupancy="0.08" waitingTime="0.00" timeLoss="5.80" speed="8.70" speedRelative="0.63" departed="0" arrived="0" entered="2" left="2" laneChangedFrom="0" laneChangedTo="0"/>
        <edge id="-1065415314" sampledSeconds="9.55" traveltime="8.47" overlapTraveltime="9.55" density="0.10" laneDensity="0.10" occupancy="0.04" waitingTime="0.00" timeLoss="4.30" speed="8.44" speedRelative="0.61" departed="0" arrived="0" entered="1" left="1" laneChangedFrom="0" laneChangedTo="0"/>
        <edge id="-1066726717" sampledSeconds="0.00" departed="0" arrived="0" entered="0" left="0" laneChangedFrom="0" laneChangedTo="0"/>
        <edge id="-1074282737" sampledSeconds="0.00" departed="0" arrived="0" entered="0" left="0" laneChangedFrom="0" laneChangedTo="0"/>
        <edge id="-1074282738" sampledSeconds="0.00" departed="0" arrived="0" entered="0" left="0" laneChangedFrom="0" laneChangedTo="0"/>
        <edge id="-1087955058" sampledSeconds="0.00" departed="0" arrived="0" entered="0" left="0" laneChangedFrom="0" laneChangedTo="0"/>
        <edge id="-1090570621" sampledSeconds="0.00" departed="0" arrived="0" entered="0" left="0" laneChangedFrom="0" laneChangedTo="0"/>
        <edge id="-1090570622" sampledSeconds="0.00" departed="0" arrived="0" entered="0" left="0" laneChangedFrom="0" laneChangedTo="0"/>
        <edge id="-1090570624#0" sampledSeconds="0.00" departed="0" arrived="0" entered="0" left="0" laneChangedFrom="0" laneChangedTo="0"/>
        <edge id="-1090570625#0" sampledSeconds="0.00" departed="0" arrived="0" entered="0" left="0" laneChangedFrom="0" laneChangedTo="0"/>
        <edge id="-1090570625#1" sampledSeconds="0.00" departed="0" arrived="0" entered="0" left="0" laneChangedFrom="0" laneChangedTo="0"/>
        <edge id="-1090570626" sampledSeconds="0.00" departed="0" arrived="0" entered="0" left="0" laneChangedFrom="0" laneChangedTo="0"/>
        <edge id="-1101675581" sampledSeconds="0.00" departed="0" arrived="0" entered="0" left="0" laneChangedFrom="0" laneChangedTo="0"/>
        <edge id="-1101675582" sampledSeconds="0.00" departed="0" arrived="0" entered="0" left="0" laneChangedFrom="0" laneChangedTo="0"/>
        <edge id="-1101675583" sampledSeconds="27.34" traveltime="10.13" overlapTraveltime="10.91" density="1.33" laneDensity="1.33" occupancy="0.61" waitingTime="13.00" timeLoss="22.70" speed="1.89" speedRelative="0.14" departed="2" arrived="1" entered="1" left="2" laneChangedFrom="0" laneChangedTo="0"/>
        <edge id="-1101675584#0" sampledSeconds="0.00" departed="0" arrived="0" entered="0" left="0" laneChangedFrom="0" laneChangedTo="0"/>
        <edge id="-1101675584#1" sampledSeconds="0.00" departed="0" arrived="0" entered="0" left="0" laneChangedFrom="0" laneChangedTo="0"/>
        <edge id="-1101690250#0" sampledSeconds="0.00" departed="0" arrived="0" entered="0" left="0" laneChangedFrom="0" laneChangedTo="0"/>
        <edge id="-1101690250#1" sampledSeconds="0.00" departed="0" arrived="0" entered="0" left="0" laneChangedFrom="0" laneChangedTo="0"/>
        <edge id="-1101690250#2" sampledSeconds="0.00" departed="0" arrived="0" entered="0" left="0" laneChangedFrom="0" laneChangedTo="0"/>
        <edge id="-1101690250#3" sampledSeconds="0.00" departed="0" arrived="0" entered="0" left="0" laneChangedFrom="0" laneChangedTo="0"/>
        <edge id="-1101690251" sampledSeconds="0.00" departed="0" arrived="0" entered="0" left="0" laneChangedFrom="0" laneChangedTo="0"/>
        <edge id="-1101690252" sampledSeconds="0.00" departed="0" arrived="0" entered="0" left="0" laneChangedFrom="0" laneChangedTo="0"/>
        <edge id="-1101690254#0" sampledSeconds="0.00" departed="0" arrived="0" entered="0" left="0" laneChangedFrom="0" laneChangedTo="0"/>
        <edge id="-1101690254#2" sampledSeconds="0.00" departed="0" arrived="0" entered="0" left="0" laneChangedFrom="0" laneChangedTo="0"/>
        <edge id="-1101690289" sampledSeconds="0.00" departed="0" arrived="0" entered="0" left="0" laneChangedFrom="0" laneChangedTo="0"/>
        <edge id="-1101690290" sampledSeconds="31.66" traveltime="4.78" overlapTraveltime="5.48" density="0.55" laneDensity="0.55" occupancy="0.24" waitingTime="0.00" timeLoss="9.46" speed="8.96" speedRelative="0.64" departed="1" arrived="4" entered="5" left="2" laneChangedFrom="0" laneChangedTo="0"/>
        <edge id="-1101690293" sampledSeconds="0.00" departed="0" arrived="0" entered="0" left="0" laneChangedFrom="0" laneChangedTo="0"/>
        <edge id="-1101696116#0" sampledSeconds="0.00" departed="0" arrived="0" entered="0" left="0" laneChangedFrom="0" laneChangedTo="0"/>
        <edge id="-1101696116#1" sampledSeconds="0.00" departed="0" arrived="0" entered="0" left="0" laneChangedFrom="0" laneChangedTo="0"/>
        <edge id="-1101696117" sampledSeconds="0.00" departed="0" arrived="0" entered="0" left="0" laneChangedFrom="0" laneChangedTo="0"/>
        <edge id="-1101696118" sampledSeconds="0.00" departed="0" arrived="0" entered="0" left="0" laneChangedFrom="0" laneChangedTo="0"/>
        <edge id="-1102833440" sampledSeconds="4.87" traveltime="4.08" overlapTraveltime="4.87" density="0.18" laneDensity="0.18" occupancy="0.07" waitingTime="0.00" timeLoss="2.93" speed="5.21" speedRelative="0.38" departed="0" arrived="0" entered="1" left="1" laneChangedFrom="0" laneChangedTo="0"/>
        <edge id="-1102833441" sampledSeconds="129.66" traveltime="79.18" overlapTraveltime="78.09" density="3.94" laneDensity="3.94" occupancy="1.95" waitingTime="114.00" timeLoss="125.19" speed="0.38" speedRelative="0.03" departed="2" arrived="0" entered="0" left="2" laneChangedFrom="0" laneChangedTo="0"/>
        <edge id="-1102833442" sampledSeconds="38.68" traveltime="5.33" overlapTraveltime="21.27" density="1.27" laneDensity="1.27" occupancy="0.47" waitingTime="23.00" timeLoss="34.45" speed="1.32" speedRelative="0.10" departed="1" arrived="0" entered="1" left="2" laneChangedFrom="0" laneChangedTo="0"/>
        <edge id="-1106333599#0" sampledSeconds="0.00" departed="0" arrived="0" entered="0" left="0" laneChangedFrom="0" laneChangedTo="0"/>
        <edge id="-1106333599#1" sampledSeconds="0.00" departed="0" arrived="0" entered="0" left="0" laneChangedFrom="0" laneChangedTo="0"/>
        <edge id="-1107102893" sampledSeconds="0.00" departed="0" arrived="0" entered="0" left="0" laneChangedFrom="0" laneChangedTo="0"/>
        <edge id="-1109597642" sampledSeconds="11.99" traveltime="5.62" overlapTraveltime="6.40" density="0.26" laneDensity="0.26" occupancy="0.12" waitingTime="0.00" timeLoss="4.98" speed="6.21" speedRelative="0.45" departed="1" arrived="0" entered="1" left="2" laneChangedFrom="0" laneChangedTo="0"/>
        <edge id="-1109599638" sampledSeconds="56.49" traveltime="7.63" overlapTraveltime="8.34" density="0.69" laneDensity="0.69" occupancy="0.32" waitingTime="0.00" timeLoss="19.26" speed="8.06" speedRelative="0.58" departed="3" arrived="2" entered="4" left="5" laneChangedFrom="0" laneChangedTo="0"/>
        <edge id="-1109599639" sampledSeconds="13.50" traveltime="4.13" overlapTraveltime="4.51" density="0.22" laneDensity="0.22" occupancy="0.10" waitingTime="0.00" timeLoss="2.62" speed="11.27" speedRelative="0.81" departed="0" arrived="3" entered="3" left="0" laneChangedFrom="0" laneChangedTo="0"/>
        <edge id="-1109599640" sampledSeconds="13.54" traveltime="0.03" overlapTraveltime="0.91" density="51.54" laneDensity="51.54" occupancy="0.99" waitingTime="0.00" timeLoss="7.86" speed="5.74" speedRelative="0.41" departed="1" arrived="1" entered="14" left="14" laneChangedFrom="0" laneChangedTo="0"/>
        <edge id="-1109599641" sampledSeconds="7.76" traveltime="0.06" overlapTraveltime="0.65" density="13.43" laneDensity="13.43" occupancy="0.54" waitingTime="0.00" timeLoss="3.27" speed="8.41" speedRelative="0.61" departed="0" arrived="1" entered="12" left="11" laneChangedFrom="0" laneChangedTo="0"/>
        <edge id="-1109599642" sampledSeconds="606.87" traveltime="11.58" overlapTraveltime="12.53" density="35.72" laneDensity="35.72" occupancy="16.68" waitingTime="449.00" timeLoss="509.64" speed="1.43" speedRelative="0.10" departed="2" arrived="0" entered="47" left="49" laneChangedFrom="0" laneChangedTo="0"/>
        <edge id="-1109599644" sampledSeconds="13.39" traveltime="0.02" overlapTraveltime="0.50" density="40.77" laneDensity="40.77" occupancy="0.97" waitingTime="0.00" timeLoss="2.81" speed="10.58" speedRelative="0.76" departed="0" arrived="0" entered="27" left="27" laneChangedFrom="0" laneChangedTo="0"/>
        <edge id="-1109599645" sampledSeconds="26.59" traveltime="4.72" overlapTraveltime="5.43" density="0.47" laneDensity="0.47" occupancy="0.21" waitingTime="0.00" timeLoss="7.63" speed="8.88" speedRelative="0.64" departed="1" arrived="0" entered="4" left="5" laneChangedFrom="0" laneChangedTo="0"/>
        <edge id="-1109599646" sampledSeconds="7.18" traveltime="7.23" overlapTraveltime="8.08" density="0.13" laneDensity="0.13" occupancy="0.06" waitingTime="0.00" timeLoss="4.17" speed="5.63" speedRelative="0.41" departed="1" arrived="0" entered="0" left="1" laneChangedFrom="0" laneChangedTo="0"/>
        <edge id="-1109599647" sampledSeconds="29.57" traveltime="0.37" overlapTraveltime="1.06" density="13.98" laneDensity="13.98" occupancy="1.59" waitingTime="1.00" timeLoss="15.79" speed="6.24" speedRelative="0.45" departed="0" arrived="1" entered="28" left="27" laneChangedFrom="0" laneChangedTo="0"/>
        <edge id="-1109599648" sampledSeconds="10.81" traveltime="0.03" overlapTraveltime="0.91" density="41.14" laneDensity="41.14" occupancy="0.80" waitingTime="0.00" timeLoss="6.05" speed="5.73" speedRelative="0.41" departed="2" arrived="0" entered="10" left="12" laneChangedFrom="0" laneChangedTo="0"/>
        <edge id="-1109599649" sampledSeconds="6.09" traveltime="0.12" overlapTraveltime="0.92" density="3.71" laneDensity="3.71" occupancy="0.40" waitingTime="0.00" timeLoss="3.26" speed="6.77" speedRelative="0.49" departed="2" arrived="1" entered="5" left="6" laneChangedFrom="0" laneChangedTo="0"/>
        <edge id="-1109898611" sampledSeconds="0.00" departed="0" arrived="0" entered="0" left="0" laneChangedFrom="0" laneChangedTo="0"/>
        <edge id="-1109899901" sampledSeconds="21.63" traveltime="5.65" overlapTraveltime="6.42" density="0.60" laneDensity="0.60" occupancy="0.28" waitingTime="0.00" timeLoss="11.45" speed="5.04" speedRelative="0.36" departed="4" arrived="0" entered="0" left="4" laneChangedFrom="0" laneChangedTo="0"/>
        <edge id="-1109900439" sampledSeconds="0.00" departed="0" arrived="0" entered="0" left="0" laneChangedFrom="0" laneChangedTo="0"/>
        <edge id="-1109900833" sampledSeconds="46.58" traveltime="21.27" overlapTraveltime="23.29" density="1.02" laneDensity="1.02" occupancy="0.48" waitingTime="30.00" timeLoss="40.99" speed="1.70" speedRelative="0.12" departed="0" arrived="0" entered="2" left="2" laneChangedFrom="0" laneChangedTo="0"/>
        <edge id="-1109900834" sampledSeconds="13.79" traveltime="6.97" overlapTraveltime="7.77" density="0.26" laneDensity="0.26" occupancy="0.12" waitingTime="0.00" timeLoss="6.68" speed="5.86" speedRelative="0.42" departed="2" arrived="0" entered="0" left="2" laneChangedFrom="0" laneChangedTo="0"/>
        <edge id="-1109900835" sampledSeconds="5.53" traveltime="5.61" overlapTraveltime="6.54" density="0.15" laneDensity="0.15" occupancy="0.07" waitingTime="0.00" timeLoss="2.76" speed="5.04" speedRelative="0.36" departed="1" arrived="0" entered="0" left="1" laneChangedFrom="0" laneChangedTo="0"/>
        <edge id="-1109908411" sampledSeconds="0.00" departed="0" arrived="0" entered="0" left="0" laneChangedFrom="0" laneChangedTo="0"/>
        <edge id="-1110193765" sampledSeconds="4.25" traveltime="3.49" overlapTraveltime="4.25" density="0.17" laneDensity="0.17" occupancy="0.07" waitingTime="0.00" timeLoss="2.30" speed="5.57" speedRelative="0.40" departed="0" arrived="0" entered="1" left="1" laneChangedFrom="0" laneChangedTo="0"/>
        <edge id="-1110221362" sampledSeconds="11.81" traveltime="5.47" overlapTraveltime="5.91" density="0.14" laneDensity="0.14" occupancy="0.06" waitingTime="0.00" timeLoss="2.42" speed="11.76" speedRelative="0.85" departed="0" arrived="1" entered="2" left="1" laneChangedFrom="0" laneChangedTo="0"/>
        <edge id="-1110221663" sampledSeconds="0.00" departed="0" arrived="0" entered="0" left="0" laneChangedFrom="0" laneChangedTo="0"/>
        <edge id="-1110221920" sampledSeconds="21.35" traveltime="2.40" overlapTraveltime="2.94" density="1.05" laneDensity="1.05" occupancy="0.43" waitingTime="0.00" timeLoss="10.88" speed="6.98" speedRelative="0.50" departed="3" arrived="0" entered="5" left="8" laneChangedFrom="0" laneChangedTo="0"/>
        <edge id="-1118275525" sampledSeconds="36.64" traveltime="0.42" overlapTraveltime="1.35" density="13.47" laneDensity="13.47" occupancy="2.03" waitingTime="0.00" timeLoss="15.92" speed="5.23" speedRelative="0.38" departed="3" arrived="1" entered="25" left="27" laneChangedFrom="0" laneChangedTo="0"/>
        <edge id="-1124477406" sampledSeconds="0.00" departed="0" arrived="0" entered="0" left="0" laneChangedFrom="0" laneChangedTo="0"/>
        <edge id="-1150869431#1" sampledSeconds="570.73" traveltime="18.78" overlapTraveltime="19.81" density="8.53" laneDensity="8.53" occupancy="4.13" waitingTime="355.00" timeLoss="478.74" speed="2.82" speedRelative="0.13" departed="2" arrived="1" entered="27" left="28" laneChangedFrom="0" laneChangedTo="0"/>
        <edge id="-1150869431#2" sampledSeconds="84.21" traveltime="2.77" overlapTraveltime="3.12" density="2.08" laneDensity="2.08" occupancy="0.88" waitingTime="0.00" timeLoss="39.70" speed="11.49" speedRelative="0.52" departed="0" arrived="1" entered="27" left="26" laneChangedFrom="0" laneChangedTo="0"/>
        <edge id="-1165663724" sampledSeconds="34.18" traveltime="7.83" overlapTraveltime="8.88" density="0.43" laneDensity="0.43" occupancy="0.20" waitingTime="5.00" timeLoss="15.79" speed="7.33" speedRelative="0.53" departed="1" arrived="1" entered="3" left="3" laneChangedFrom="0" laneChangedTo="0"/>
        <edge id="-1182440755" sampledSeconds="15.56" traveltime="15.19" overlapTraveltime="16.11" density="0.08" laneDensity="0.08" occupancy="0.04" waitingTime="0.00" timeLoss="4.08" speed="9.33" speedRelative="0.67" departed="1" arrived="0" entered="0" left="1" laneChangedFrom="0" laneChangedTo="0"/>
        <edge id="-1185209421#0" sampledSeconds="899.32" traveltime="21.01" overlapTraveltime="23.80" density="15.53" laneDensity="15.53" occupancy="7.04" waitingTime="620.00" timeLoss="762.80" speed="2.06" speedRelative="0.15" departed="2" arrived="0" entered="36" left="38" laneChangedFrom="0" laneChangedTo="0"/>
        <edge id="-1185209421#2" sampledSeconds="121.37" traveltime="4.13" overlapTraveltime="4.51" density="1.80" laneDensity="1.80" occupancy="0.82" waitingTime="0.00" timeLoss="13.87" speed="12.46" speedRelative="0.90" departed="1" arrived="0" entered="26" left="27" laneChangedFrom="0" laneChangedTo="0"/>
        <edge id="-1185209421#3" sampledSeconds="42.04" traveltime="1.51" overlapTraveltime="2.03" density="2.86" laneDensity="2.86" occupancy="0.99" waitingTime="0.00" timeLoss="18.13" speed="7.97" speedRelative="0.57" departed="1" arrived="0" entered="20" left="21" laneChangedFrom="0" laneChangedTo="0"/>
        <edge id="-1185209422#0" sampledSeconds="1686.30" traveltime="13.15" overlapTraveltime="14.17" density="27.42" laneDensity="27.42" occupancy="12.30" waitingTime="1142.00" timeLoss="1391.01" speed="3.66" speedRelative="0.16" departed="1" arrived="3" entered="119" left="116" laneChangedFrom="0" laneChangedTo="0"/>
        <edge id="-1185209422#1" sampledSeconds="293.75" traveltime="1.41" overlapTraveltime="2.43" density="17.76" laneDensity="17.76" occupancy="6.21" waitingTime="161.00" timeLoss="197.60" speed="7.23" speedRelative="0.33" departed="1" arrived="2" entered="120" left="119" laneChangedFrom="0" laneChangedTo="0"/>
        <edge id="-1185209422#2" sampledSeconds="1084.60" traveltime="8.57" overlapTraveltime="8.87" density="11.62" laneDensity="11.62" occupancy="5.55" waitingTime="388.00" timeLoss="663.60" speed="8.57" speedRelative="0.39" departed="0" arrived="1" entered="123" left="120" laneChangedFrom="0" laneChangedTo="0"/>
        <edge id="-1185467340" sampledSeconds="148.75" traveltime="25.69" overlapTraveltime="27.40" density="2.02" laneDensity="2.02" occupancy="0.96" waitingTime="0.00" timeLoss="36.08" speed="2.23" speedRelative="0.80" departed="2" arrived="2" entered="4" left="3" laneChangedFrom="0" laneChangedTo="0"/>
        <edge id="-1185467975" sampledSeconds="0.00" departed="0" arrived="0" entered="0" left="0" laneChangedFrom="0" laneChangedTo="0"/>
        <edge id="-1185468746" sampledSeconds="13.31" traveltime="2.27" overlapTraveltime="2.99" density="0.85" laneDensity="0.85" occupancy="0.29" waitingTime="0.00" timeLoss="8.06" speed="5.66" speedRelative="0.41" departed="0" arrived="2" entered="5" left="3" laneChangedFrom="0" laneChangedTo="0"/>
        <edge id="-1185469198" sampledSeconds="0.00" departed="0" arrived="0" entered="0" left="0" laneChangedFrom="0" laneChangedTo="0"/>
        <edge id="-1185875477" sampledSeconds="0.00" departed="0" arrived="0" entered="0" left="0" laneChangedFrom="0" laneChangedTo="0"/>
        <edge id="-1185876385" sampledSeconds="12.28" traveltime="5.79" overlapTraveltime="6.14" density="0.13" laneDensity="0.13" occupancy="0.06" waitingTime="0.00" timeLoss="2.12" speed="12.57" speedRelative="0.90" departed="0" arrived="2" entered="2" left="0" laneChangedFrom="0" laneChangedTo="0"/>
        <edge id="-1185877001" sampledSeconds="3.67" traveltime="2.92" overlapTraveltime="3.67" density="0.20" laneDensity="0.20" occupancy="0.07" waitingTime="0.00" timeLoss="1.87" speed="5.13" speedRelative="0.37" departed="0" arrived="0" entered="1" left="1" laneChangedFrom="0" laneChangedTo="0"/>
        <edge id="-1213264717" sampledSeconds="6.00" traveltime="6.42" overlapTraveltime="6.94" density="0.14" laneDensity="0.14" occupancy="0.07" waitingTime="0.00" timeLoss="3.66" speed="5.42" speedRelative="0.39" departed="1" arrived="0" entered="0" left="1" laneChangedFrom="0" laneChangedTo="0"/>
        <edge id="-1215278306#0" sampledSeconds="11.27" traveltime="3.00" overlapTraveltime="4.00" density="0.37" laneDensity="0.37" occupancy="0.15" waitingTime="0.00" timeLoss="4.33" speed="7.02" speedRelative="0.51" departed="1" arrived="1" entered="2" left="2" laneChangedFrom="0" laneChangedTo="0"/>
        <edge id="-1215278306#1" sampledSeconds="34.17" traveltime="2.40" overlapTraveltime="3.20" density="1.49" laneDensity="1.49" occupancy="0.58" waitingTime="0.00" timeLoss="13.30" speed="7.01" speedRelative="0.50" departed="1" arrived="1" entered="10" left="10" laneChangedFrom="0" laneChangedTo="0"/>
        <edge id="-1215337274#1" sampledSeconds="14.42" traveltime="1.79" overlapTraveltime="2.51" density="54.88" laneDensity="54.88" occupancy="1.08" waitingTime="7.00" timeLoss="11.12" speed="2.08" speedRelative="0.15" departed="3" arrived="2" entered="4" left="5" laneChangedFrom="0" laneChangedTo="0"/>
        <edge id="-1215337274#2" sampledSeconds="22.41" traveltime="7.17" overlapTraveltime="7.68" density="0.29" laneDensity="0.29" occupancy="0.13" waitingTime="0.00" timeLoss="8.20" speed="8.32" speedRelative="0.60" departed="1" arrived="1" entered="2" left="2" laneChangedFrom="0" laneChangedTo="0"/>
        <edge id="-1215337274#3" sampledSeconds="17.54" traveltime="7.62" overlapTraveltime="9.13" density="0.23" laneDensity="0.23" occupancy="0.10" waitingTime="0.00" timeLoss="7.83" speed="7.00" speedRelative="0.50" departed="1" arrived="0" entered="1" left="2" laneChangedFrom="0" laneChangedTo="0"/>
        <edge id="-1227539673#0" sampledSeconds="14.05" traveltime="2.43" overlapTraveltime="3.14" density="0.73" laneDensity="0.73" occupancy="0.30" waitingTime="0.00" timeLoss="5.65" speed="6.25" speedRelative="0.45" departed="2" arrived="1" entered="3" left="4" laneChangedFrom="0" laneChangedTo="0"/>
        <edge id="-1227539673#1" sampledSeconds="37.61" traveltime="5.96" overlapTraveltime="6.53" density="0.54" laneDensity="0.54" occupancy="0.25" waitingTime="0.00" timeLoss="11.92" speed="8.89" speedRelative="0.64" departed="2" arrived="2" entered="4" left="4" laneChangedFrom="0" laneChangedTo="0"/>
        <edge id="-1227709810" sampledSeconds="0.00" departed="0" arrived="0" entered="0" left="0" laneChangedFrom="0" laneChangedTo="0"/>
        <edge id="-1227710024" sampledSeconds="0.00" departed="0" arrived="0" entered="0" left="0" laneChangedFrom="0" laneChangedTo="0"/>
        <edge id="-1227710144" sampledSeconds="0.00" departed="0" arrived="0" entered="0" left="0" laneChangedFrom="0" laneChangedTo="0"/>
        <edge id="-1227710722" sampledSeconds="0.00" departed="0" arrived="0" entered="0" left="0" laneChangedFrom="0" laneChangedTo="0"/>
        <edge id="-1227711130" sampledSeconds="0.00" departed="0" arrived="0" entered="0" left="0" laneChangedFrom="0" laneChangedTo="0"/>
        <edge id="-1227711710" sampledSeconds="0.00" departed="0" arrived="0" entered="0" left="0" laneChangedFrom="0" laneChangedTo="0"/>
        <edge id="-123629031#0" sampledSeconds="3.61" traveltime="1.97" overlapTraveltime="3.61" density="0.35" laneDensity="0.35" occupancy="0.11" waitingTime="0.00" timeLoss="1.41" speed="3.58" speedRelative="0.26" departed="0" arrived="0" entered="1" left="1" laneChangedFrom="0" laneChangedTo="0"/>
        <edge id="-123629031#1" sampledSeconds="0.00" departed="0" arrived="0" entered="0" left="0" laneChangedFrom="0" laneChangedTo="0"/>
        <edge id="-123629036#0" sampledSeconds="4.82" traveltime="1.74" overlapTraveltime="2.41" density="0.32" laneDensity="0.32" occupancy="0.12" waitingTime="0.00" timeLoss="1.86" speed="6.81" speedRelative="0.49" departed="0" arrived="0" entered="2" left="2" laneChangedFrom="0" laneChangedTo="0"/>
        <edge id="-123629036#1" sampledSeconds="6.12" traveltime="2.41" overlapTraveltime="3.06" density="0.26" laneDensity="0.26" occupancy="0.10" waitingTime="0.00" timeLoss="2.98" speed="7.46" speedRelative="0.54" departed="0" arrived="0" entered="2" left="2" laneChangedFrom="0" laneChangedTo="0"/>
        <edge id="-123629036#2" sampledSeconds="1.47" traveltime="1.10" overlapTraveltime="1.47" density="0.09" laneDensity="0.09" occupancy="0.03" waitingTime="0.00" timeLoss="0.28" speed="11.60" speedRelative="0.84" departed="0" arrived="0" entered="1" left="1" laneChangedFrom="0" laneChangedTo="0"/>
        <edge id="-123629036#3" sampledSeconds="3.12" traveltime="2.43" overlapTraveltime="3.12" density="0.15" laneDensity="0.15" occupancy="0.06" waitingTime="0.00" timeLoss="1.66" speed="6.68" speedRelative="0.48" departed="0" arrived="0" entered="1" left="1" laneChangedFrom="0" laneChangedTo="0"/>
        <edge id="-123629047" sampledSeconds="0.00" departed="0" arrived="0" entered="0" left="0" laneChangedFrom="0" laneChangedTo="0"/>
        <edge id="-123629099#0" sampledSeconds="10.92" traveltime="10.76" overlapTraveltime="11.54" density="0.09" laneDensity="0.09" occupancy="0.04" waitingTime="0.00" timeLoss="5.33" speed="8.20" speedRelative="0.59" departed="1" arrived="0" entered="0" left="1" laneChangedFrom="0" laneChangedTo="0"/>
        <edge id="-123629099#1" sampledSeconds="7.17" traveltime="6.19" overlapTraveltime="7.17" density="0.09" laneDensity="0.09" occupancy="0.04" waitingTime="0.00" timeLoss="0.92" speed="9.32" speedRelative="0.67" departed="0" arrived="0" entered="1" left="1" laneChangedFrom="0" laneChangedTo="0"/>
        <edge id="-123629099#2" sampledSeconds="1.50" traveltime="1.03" overlapTraveltime="1.50" density="0.11" laneDensity="0.11" occupancy="0.04" waitingTime="0.00" timeLoss="0.16" speed="10.41" speedRelative="0.75" departed="0" arrived="0" entered="1" left="1" laneChangedFrom="0" laneChangedTo="0"/>
        <edge id="-123629099#3" sampledSeconds="3.03" traveltime="2.49" overlapTraveltime="3.03" density="0.10" laneDensity="0.10" occupancy="0.04" waitingTime="0.00" timeLoss="0.56" speed="9.06" speedRelative="0.65" departed="0" arrived="0" entered="1" left="1" laneChangedFrom="0" laneChangedTo="0"/>
        <edge id="-123629137#0" sampledSeconds="0.00" departed="0" arrived="0" entered="0" left="0" laneChangedFrom="0" laneChangedTo="0"/>
        <edge id="-123629137#1" sampledSeconds="8.24" traveltime="6.61" overlapTraveltime="8.24" density="0.08" laneDensity="0.08" occupancy="0.04" waitingTime="0.00" timeLoss="1.28" speed="10.11" speedRelative="0.73" departed="0" arrived="0" entered="1" left="1" laneChangedFrom="0" laneChangedTo="0"/>
        <edge id="-123629137#2" sampledSeconds="1.01" traveltime="0.65" overlapTraveltime="1.01" density="0.09" laneDensity="0.09" occupancy="0.03" waitingTime="0.00" timeLoss="0.06" speed="13.60" speedRelative="0.98" departed="0" arrived="0" entered="1" left="1" laneChangedFrom="0" laneChangedTo="0"/>
        <edge id="-123629137#3" sampledSeconds="3.45" traveltime="1.54" overlapTraveltime="1.95" density="0.16" laneDensity="0.16" occupancy="0.06" waitingTime="0.00" timeLoss="0.76" speed="11.11" speedRelative="0.80" departed="0" arrived="1" entered="2" left="1" laneChangedFrom="0" laneChangedTo="0"/>
        <edge id="-123629137#4" sampledSeconds="1.29" traveltime="0.94" overlapTraveltime="1.29" density="0.07" laneDensity="0.07" occupancy="0.03" waitingTime="0.00" timeLoss="0.04" speed="14.03" speedRelative="1.01" departed="0" arrived="0" entered="1" left="1" laneChangedFrom="0" laneChangedTo="0"/>
        <edge id="-123629179#0" sampledSeconds="16.82" traveltime="15.63" overlapTraveltime="17.34" density="0.08" laneDensity="0.08" occupancy="0.04" waitingTime="0.00" timeLoss="4.81" speed="9.64" speedRelative="0.69" departed="1" arrived="0" entered="0" left="1" laneChangedFrom="0" laneChangedTo="0"/>
        <edge id="-123629182#0" sampledSeconds="0.00" departed="0" arrived="0" entered="0" left="0" laneChangedFrom="0" laneChangedTo="0"/>
        <edge id="-123629182#1" sampledSeconds="0.00" departed="0" arrived="0" entered="0" left="0" laneChangedFrom="0" laneChangedTo="0"/>
        <edge id="-123629182#2" sampledSeconds="0.00" departed="0" arrived="0" entered="0" left="0" laneChangedFrom="0" laneChangedTo="0"/>
        <edge id="-123629182#3" sampledSeconds="0.00" departed="0" arrived="0" entered="0" left="0" laneChangedFrom="0" laneChangedTo="0"/>