<?xml version="1.0" encoding="UTF-8"?>

<!-- generated on 2025-09-21 01:20:32 by Eclipse SUMO GUI Version 1.24.0
<sumoConfiguration xmlns:xsi="http://www.w3.org/2001/XMLSchema-instance" xsi:noNamespaceSchemaLocation="http://sumo.dlr.de/xsd/sumoConfiguration.xsd">

    <input>
        <net-file value="../Banglore_Silk_Junction/osm.net.xml.gz"/>
        <route-files value="../Banglore_Silk_Junction/osm.routes.xml"/>
        <additional-files value="../Banglore_Silk_Junction/osm.poly.xml.gz,../Banglore_Silk_Junction/output.add.xml"/>
    </input>

    <output>
        <summary-output value="outputs/bangalore_after_ai_summary.xml"/>
        <tripinfo-output value="outputs/bangalore_after_ai_tripinfo.xml"/>
        <statistic-output value="../Banglore_Silk_Junction/stats.xml"/>
    </output>

    <processing>
        <ignore-route-errors value="true"/>
        <tls.actuated.jam-threshold value="30"/>
    </processing>

    <routing>
        <device.rerouting.adaptation-steps value="18"/>
        <device.rerouting.adaptation-interval value="10"/>
    </routing>

    <report>
        <verbose value="true"/>
        <duration-log.statistics value="true"/>
        <no-step-log value="true"/>
    </report>

    <traci_server>
        <remote-port value="8813"/>
    </traci_server>

    <gui_only>
        <gui-settings-file value="../Banglore_Silk_Junction/osm.view.xml"/>
        <start value="true"/>
    </gui_only>

</sumoConfiguration>
-->

<meandata xmlns:xsi="http://www.w3.org/2001/XMLSchema-instance" xsi:noNamespaceSchemaLocation="http://sumo.dlr.de/xsd/meandata_file.xsd">
    <interval begin="0.00" end="3600.00" id="wizard_example">
        <edge id="-1030669035" sampledSeconds="116.65" traveltime="5.81" overlapTraveltime="7.10" density="1.02" laneDensity="1.02" occupancy="0.44" waitingTime="0.00" timeLoss="60.73" speed="5.18" speedRelative="0.37" departed="11" arrived="6" entered="7" left="12" laneChangedFrom="0" laneChangedTo="0"/>
        <edge id="-1042112410" sampledSeconds="2760.73" traveltime="77.69" overlapTraveltime="79.98" density="133.33" laneDensity="133.33" occupancy="44.02" waitingTime="2671.97" timeLoss="2746.73" speed="0.07" speedRelative="0.00" departed="4" arrived="2" entered="49" left="49" laneChangedFrom="0" laneChangedTo="0" teleported="7"/>
        <edge id="-1063933802#0" sampledSeconds="5227.44" traveltime="173.16" overlapTraveltime="175.09" density="11.25" laneDensity="11.25" occupancy="5.60" waitingTime="4655.00" timeLoss="4909.20" speed="0.77" speedRelative="0.06" departed="1" arrived="1" entered="29" left="29" laneChangedFrom="0" laneChangedTo="0" teleported="2"/>
        <edge id="-1063933802#1" sampledSeconds="219.72" traveltime="7.02" overlapTraveltime="7.41" density="0.85" laneDensity="0.85" occupancy="0.39" waitingTime="0.00" timeLoss="50.12" speed="10.31" speedRelative="0.74" departed="5" arrived="1" entered="25" left="29" laneChangedFrom="0" laneChangedTo="0"/>
        <edge id="-1063933802#2" sampledSeconds="38.31" traveltime="4.12" overlapTraveltime="4.53" density="0.33" laneDensity="0.33" occupancy="0.15" waitingTime="0.00" timeLoss="15.91" speed="8.16" speedRelative="0.59" departed="4" arrived="1" entered="5" left="8" laneChangedFrom="0" laneChangedTo="0"/>
        <edge id="-1063933802#3" sampledSeconds="39.30" traveltime="7.25" overlapTraveltime="7.86" density="0.17" laneDensity="0.17" occupancy="0.07" waitingTime="0.00" timeLoss="12.87" speed="8.90" speedRelative="0.64" departed="0" arrived="0" entered="5" left="5" laneChangedFrom="0" laneChangedTo="0"/>
        <edge id="-1065415314" sampledSeconds="125.83" traveltime="9.50" overlapTraveltime="10.89" density="0.46" laneDensity="0.46" occupancy="0.21" waitingTime="0.00" timeLoss="55.46" speed="7.40" speedRelative="0.53" departed="7" arrived="0" entered="5" left="12" laneChangedFrom="0" laneChangedTo="0"/>
        <edge id="-1066726717" sampledSeconds="0.00" departed="0" arrived="0" entered="0" left="0" laneChangedFrom="0" laneChangedTo="0"/>
        <edge id="-1074282737" sampledSeconds="0.00" departed="0" arrived="0" entered="0" left="0" laneChangedFrom="0" laneChangedTo="0"/>
        <edge id="-1074282738" sampledSeconds="0.00" departed="0" arrived="0" entered="0" left="0" laneChangedFrom="0" laneChangedTo="0"/>
        <edge id="-1087955058" sampledSeconds="0.00" departed="0" arrived="0" entered="0" left="0" laneChangedFrom="0" laneChangedTo="0"/>
        <edge id="-1090570621" sampledSeconds="0.00" departed="0" arrived="0" entered="0" left="0" laneChangedFrom="0" laneChangedTo="0"/>
        <edge id="-1090570622" sampledSeconds="0.00" departed="0" arrived="0" entered="0" left="0" laneChangedFrom="0" laneChangedTo="0"/>
        <edge id="-1090570624#0" sampledSeconds="0.00" departed="0" arrived="0" entered="0" left="0" laneChangedFrom="0" laneChangedTo="0"/>
        <edge id="-1090570625#0" sampledSeconds="0.00" departed="0" arrived="0" entered="0" left="0" laneChangedFrom="0" laneChangedTo="0"/>
        <edge id="-1090570625#1" sampledSeconds="0.00" departed="0" arrived="0" entered="0" left="0" laneChangedFrom="0" laneChangedTo="0"/>
        <edge id="-1090570626" sampledSeconds="0.00" departed="0" arrived="0" entered="0" left="0" laneChangedFrom="0" laneChangedTo="0"/>
        <edge id="-1101675581" sampledSeconds="0.00" departed="0" arrived="0" entered="0" left="0" laneChangedFrom="0" laneChangedTo="0"/>
        <edge id="-1101675582" sampledSeconds="0.00" departed="0" arrived="0" entered="0" left="0" laneChangedFrom="0" laneChangedTo="0"/>
        <edge id="-1101675583" sampledSeconds="894.13" traveltime="74.74" overlapTraveltime="108.44" density="15.90" laneDensity="15.90" occupancy="6.28" waitingTime="823.00" timeLoss="878.42" speed="0.19" speedRelative="0.01" departed="3" arrived="2" entered="6" left="7" laneChangedFrom="0" laneChangedTo="0"/>
        <edge id="-1101675584#0" sampledSeconds="0.00" departed="0" arrived="0" entered="0" left="0" laneChangedFrom="0" laneChangedTo="0"/>
        <edge id="-1101675584#1" sampledSeconds="0.00" departed="0" arrived="0" entered="0" left="0" laneChangedFrom="0" laneChangedTo="0"/>
        <edge id="-1101690250#0" sampledSeconds="0.00" departed="0" arrived="0" entered="0" left="0" laneChangedFrom="0" laneChangedTo="0"/>
        <edge id="-1101690250#1" sampledSeconds="0.00" departed="0" arrived="0" entered="0" left="0" laneChangedFrom="0" laneChangedTo="0"/>
        <edge id="-1101690250#2" sampledSeconds="0.00" departed="0" arrived="0" entered="0" left="0" laneChangedFrom="0" laneChangedTo="0"/>
        <edge id="-1101690250#3" sampledSeconds="0.00" departed="0" arrived="0" entered="0" left="0" laneChangedFrom="0" laneChangedTo="0"/>
        <edge id="-1101690251" sampledSeconds="0.00" departed="0" arrived="0" entered="0" left="0" laneChangedFrom="0" laneChangedTo="0"/>
        <edge id="-1101690252" sampledSeconds="0.00" departed="0" arrived="0" entered="0" left="0" laneChangedFrom="0" laneChangedTo="0"/>
        <edge id="-1101690254#0" sampledSeconds="0.00" departed="0" arrived="0" entered="0" left="0" laneChangedFrom="0" laneChangedTo="0"/>
        <edge id="-1101690254#2" sampledSeconds="0.00" departed="0" arrived="0" entered="0" left="0" laneChangedFrom="0" laneChangedTo="0"/>
        <edge id="-1101690289" sampledSeconds="0.00" departed="0" arrived="0" entered="0" left="0" laneChangedFrom="0" laneChangedTo="0"/>
        <edge id="-1101690290" sampledSeconds="64.42" traveltime="5.74" overlapTraveltime="6.79" density="0.41" laneDensity="0.41" occupancy="0.18" waitingTime="0.00" timeLoss="25.16" speed="7.23" speedRelative="0.52" departed="4" arrived="5" entered="6" left="5" laneChangedFrom="0" laneChangedTo="0"/>
        <edge id="-1101690293" sampledSeconds="0.00" departed="0" arrived="0" entered="0" left="0" laneChangedFrom="0" laneChangedTo="0"/>
        <edge id="-1101696116#0" sampledSeconds="0.00" departed="0" arrived="0" entered="0" left="0" laneChangedFrom="0" laneChangedTo="0"/>
        <edge id="-1101696116#1" sampledSeconds="0.00" departed="0" arrived="0" entered="0" left="0" laneChangedFrom="0" laneChangedTo="0"/>
        <edge id="-1101696117" sampledSeconds="0.00" departed="0" arrived="0" entered="0" left="0" laneChangedFrom="0" laneChangedTo="0"/>
        <edge id="-1101696118" sampledSeconds="0.00" departed="0" arrived="0" entered="0" left="0" laneChangedFrom="0" laneChangedTo="0"/>
        <edge id="-1102833440" sampledSeconds="2521.43" traveltime="145.69" overlapTraveltime="205.59" density="34.38" laneDensity="34.38" occupancy="15.68" waitingTime="2386.00" timeLoss="2494.88" speed="0.12" speedRelative="0.01" departed="5" arrived="0" entered="9" left="13" laneChangedFrom="0" laneChangedTo="0" teleported="2"/>
        <edge id="-1102833441" sampledSeconds="908.85" traveltime="128.78" overlapTraveltime="133.43" density="10.08" laneDensity="10.08" occupancy="5.01" waitingTime="850.00" timeLoss="891.03" speed="0.23" speedRelative="0.02" departed="5" arrived="0" entered="3" left="8" laneChangedFrom="0" laneChangedTo="0" teleported="2"/>
        <edge id="-1102833442" sampledSeconds="862.70" traveltime="197.89" overlapTraveltime="210.77" density="10.37" laneDensity="10.37" occupancy="5.16" waitingTime="822.00" timeLoss="854.04" speed="0.13" speedRelative="0.01" departed="3" arrived="0" entered="2" left="5" laneChangedFrom="0" laneChangedTo="0" teleported="2"/>
        <edge id="-1106333599#0" sampledSeconds="0.00" departed="0" arrived="0" entered="0" left="0" laneChangedFrom="0" laneChangedTo="0"/>
        <edge id="-1106333599#1" sampledSeconds="0.00" departed="0" arrived="0" entered="0" left="0" laneChangedFrom="0" laneChangedTo="0"/>
        <edge id="-1107102893" sampledSeconds="0.00" departed="0" arrived="0" entered="0" left="0" laneChangedFrom="0" laneChangedTo="0"/>
        <edge id="-1109597642" sampledSeconds="43.75" traveltime="5.03" overlapTraveltime="5.74" density="0.35" laneDensity="0.35" occupancy="0.16" waitingTime="0.00" timeLoss="18.15" speed="6.92" speedRelative="0.50" departed="3" arrived="1" entered="5" left="7" laneChangedFrom="0" laneChangedTo="0"/>
        <edge id="-1109599638" sampledSeconds="233.42" traveltime="34.02" overlapTraveltime="35.30" density="1.04" laneDensity="1.04" occupancy="0.51" waitingTime="169.00" timeLoss="196.46" speed="1.90" speedRelative="0.14" departed="4" arrived="2" entered="3" left="5" laneChangedFrom="0" laneChangedTo="0"/>
        <edge id="-1109599639" sampledSeconds="19.01" traveltime="4.48" overlapTraveltime="4.87" density="0.12" laneDensity="0.12" occupancy="0.05" waitingTime="0.00" timeLoss="4.98" speed="10.43" speedRelative="0.75" departed="0" arrived="4" entered="4" left="0" laneChangedFrom="0" laneChangedTo="0"/>
        <edge id="-1109599640" sampledSeconds="40.32" traveltime="0.03" overlapTraveltime="0.94" density="56.01" laneDensity="56.01" occupancy="1.08" waitingTime="0.00" timeLoss="23.79" speed="5.53" speedRelative="0.40" departed="4" arrived="1" entered="39" left="42" laneChangedFrom="0" laneChangedTo="0"/>
        <edge id="-1109599641" sampledSeconds="31.74" traveltime="0.06" overlapTraveltime="0.83" density="20.04" laneDensity="20.04" occupancy="0.82" waitingTime="0.00" timeLoss="15.81" speed="6.54" speedRelative="0.47" departed="4" arrived="3" entered="35" left="36" laneChangedFrom="0" laneChangedTo="0"/>
        <edge id="-1109599642" sampledSeconds="1654.59" traveltime="5.99" overlapTraveltime="7.00" density="35.55" laneDensity="35.55" occupancy="15.63" waitingTime="835.00" timeLoss="1192.98" speed="2.56" speedRelative="0.18" departed="2" arrived="1" entered="235" left="236" laneChangedFrom="0" laneChangedTo="0"/>
        <edge id="-1109599644" sampledSeconds="97.68" traveltime="0.04" overlapTraveltime="0.72" density="108.54" laneDensity="108.54" occupancy="2.59" waitingTime="2.00" timeLoss="45.39" speed="7.30" speedRelative="0.53" departed="4" arrived="1" entered="132" left="135" laneChangedFrom="0" laneChangedTo="0"/>
        <edge id="-1109599645" sampledSeconds="830.42" traveltime="38.24" overlapTraveltime="39.06" density="5.33" laneDensity="5.33" occupancy="2.62" waitingTime="638.00" timeLoss="745.70" speed="1.24" speedRelative="0.09" departed="7" arrived="1" entered="15" left="21" laneChangedFrom="0" laneChangedTo="0"/>
        <edge id="-1109599646" sampledSeconds="122.84" traveltime="8.85" overlapTraveltime="10.43" density="0.84" laneDensity="0.84" occupancy="0.38" waitingTime="29.00" timeLoss="79.28" speed="4.36" speedRelative="0.31" departed="2" arrived="0" entered="10" left="12" laneChangedFrom="0" laneChangedTo="0"/>
        <edge id="-1109599647" sampledSeconds="195.18" traveltime="0.81" overlapTraveltime="1.57" density="33.67" laneDensity="33.67" occupancy="3.55" waitingTime="53.00" timeLoss="134.50" speed="4.21" speedRelative="0.30" departed="2" arrived="2" entered="124" left="124" laneChangedFrom="0" laneChangedTo="0"/>
        <edge id="-1109599648" sampledSeconds="24.40" traveltime="0.03" overlapTraveltime="0.74" density="33.88" laneDensity="33.88" occupancy="0.65" waitingTime="0.00" timeLoss="10.73" speed="7.00" speedRelative="0.50" departed="2" arrived="2" entered="32" left="32" laneChangedFrom="0" laneChangedTo="0"/>
        <edge id="-1109599649" sampledSeconds="17.25" traveltime="0.13" overlapTraveltime="0.85" density="3.83" laneDensity="3.83" occupancy="0.40" waitingTime="0.00" timeLoss="7.11" speed="7.32" speedRelative="0.53" departed="4" arrived="1" entered="17" left="20" laneChangedFrom="0" laneChangedTo="0"/>
        <edge id="-1109898611" sampledSeconds="0.00" departed="0" arrived="0" entered="0" left="0" laneChangedFrom="0" laneChangedTo="0"/>
        <edge id="-1109899901" sampledSeconds="22.61" traveltime="5.95" overlapTraveltime="6.71" density="0.23" laneDensity="0.23" occupancy="0.11" waitingTime="0.00" timeLoss="13.04" speed="4.82" speedRelative="0.35" departed="4" arrived="0" entered="0" left="4" laneChangedFrom="0" laneChangedTo="0"/>
        <edge id="-1109900439" sampledSeconds="0.00" departed="0" arrived="0" entered="0" left="0" laneChangedFrom="0" laneChangedTo="0"/>
        <edge id="-1109900833" sampledSeconds="405.43" traveltime="141.31" overlapTraveltime="147.83" density="3.25" laneDensity="3.25" occupancy="1.62" waitingTime="383.00" timeLoss="397.70" speed="0.27" speedRelative="0.02" departed="1" arrived="0" entered="2" left="3" laneChangedFrom="0" laneChangedTo="0" teleported="1"/>
        <edge id="-1109900834" sampledSeconds="49.92" traveltime="17.87" overlapTraveltime="18.74" density="0.34" laneDensity="0.34" occupancy="0.17" waitingTime="27.00" timeLoss="39.98" speed="2.43" speedRelative="0.17" departed="3" arrived="0" entered="0" left="3" laneChangedFrom="0" laneChangedTo="0"/>
        <edge id="-1109900835" sampledSeconds="107.53" traveltime="22.75" overlapTraveltime="24.54" density="1.07" laneDensity="1.07" occupancy="0.51" waitingTime="68.00" timeLoss="95.45" speed="1.34" speedRelative="0.10" departed="3" arrived="0" entered="2" left="4" laneChangedFrom="0" laneChangedTo="0"/>
        <edge id="-1109908411" sampledSeconds="0.00" departed="0" arrived="0" entered="0" left="0" laneChangedFrom="0" laneChangedTo="0"/>
        <edge id="-1110193765" sampledSeconds="29.41" traveltime="4.52" overlapTraveltime="5.15" density="0.44" laneDensity="0.44" occupancy="0.19" waitingTime="0.00" timeLoss="16.62" speed="4.59" speedRelative="0.33" departed="6" arrived="0" entered="1" left="7" laneChangedFrom="0" laneChangedTo="0"/>
        <edge id="-1110221362" sampledSeconds="545.40" traveltime="31.68" overlapTraveltime="32.71" density="2.35" laneDensity="2.35" occupancy="1.15" waitingTime="407.00" timeLoss="460.56" speed="2.12" speedRelative="0.15" departed="3" arrived="2" entered="14" left="15" laneChangedFrom="0" laneChangedTo="0" teleported="1"/>
        <edge id="-1110221663" sampledSeconds="38.73" traveltime="9.37" overlapTraveltime="10.38" density="0.15" laneDensity="0.15" occupancy="0.07" waitingTime="0.00" timeLoss="14.27" speed="7.34" speedRelative="0.53" departed="4" arrived="0" entered="0" left="4" laneChangedFrom="0" laneChangedTo="0"/>
        <edge id="-1110221920" sampledSeconds="45.11" traveltime="2.23" overlapTraveltime="2.82" density="0.81" laneDensity="0.81" occupancy="0.32" waitingTime="0.00" timeLoss="20.65" speed="7.29" speedRelative="0.53" departed="4" arrived="1" entered="13" left="16" laneChangedFrom="0" laneChangedTo="0"/>
        <edge id="-1118275525" sampledSeconds="182.18" traveltime="0.64" overlapTraveltime="1.55" density="24.45" laneDensity="24.45" occupancy="3.62" waitingTime="15.00" timeLoss="93.06" speed="4.56" speedRelative="0.33" departed="5" arrived="3" entered="114" left="116" laneChangedFrom="0" laneChangedTo="0"/>
        <edge id="-1124477406" sampledSeconds="7.04" traveltime="7.29" overlapTraveltime="7.89" density="0.05" laneDensity="0.05" occupancy="0.02" waitingTime="0.00" timeLoss="3.51" speed="5.96" speedRelative="0.43" departed="1" arrived="0" entered="0" left="1" laneChangedFrom="0" laneChangedTo="0"/>
        <edge id="-1150869431#1" sampledSeconds="2893.99" traveltime="35.65" overlapTraveltime="36.78" density="15.79" laneDensity="15.79" occupancy="7.75" waitingTime="2200.00" timeLoss="2644.34" speed="1.52" speedRelative="0.07" departed="2" arrived="2" entered="77" left="76" laneChangedFrom="0" laneChangedTo="0"/>
        <edge id="-1150869431#2" sampledSeconds="234.48" traveltime="2.82" overlapTraveltime="3.18" density="2.11" laneDensity="2.11" occupancy="0.90" waitingTime="0.00" timeLoss="112.51" speed="11.27" speedRelative="0.51" departed="2" arrived="1" entered="72" left="73" laneChangedFrom="0" laneChangedTo="0"/>
        <edge id="-1165663724" sampledSeconds="1364.89" traveltime="96.66" overlapTraveltime="99.16" density="6.31" laneDensity="6.31" occupancy="3.13" waitingTime="1248.00" timeLoss="1298.72" speed="0.66" speedRelative="0.05" departed="1" arrived="2" entered="13" left="12" laneChangedFrom="0" laneChangedTo="0" teleported="2"/>
        <edge id="-1182440755" sampledSeconds="64.28" traveltime="15.77" overlapTraveltime="16.64" density="0.12" laneDensity="0.12" occupancy="0.06" waitingTime="0.00" timeLoss="16.87" speed="9.03" speedRelative="0.65" departed="4" arrived="0" entered="0" left="4" laneChangedFrom="0" laneChangedTo="0"/>
        <edge id="-1185209421#0" sampledSeconds="10777.36" traveltime="106.67" overlapTraveltime="110.48" density="67.95" laneDensity="67.95" occupancy="32.93" waitingTime="9618.00" timeLoss="10417.09" speed="0.44" speedRelative="0.03" departed="4" arrived="2" entered="98" left="94" laneChangedFrom="0" laneChangedTo="0" teleported="1"/>
        <edge id="-1185209421#2" sampledSeconds="8593.68" traveltime="99.90" overlapTraveltime="100.94" density="46.62" laneDensity="46.62" occupancy="23.17" waitingTime="7829.00" timeLoss="8249.80" speed="0.56" speedRelative="0.04" departed="2" arrived="2" entered="87" left="80" laneChangedFrom="0" laneChangedTo="0" teleported="1"/>
        <edge id="-1185209421#3" sampledSeconds="1301.06" traveltime="15.20" overlapTraveltime="15.96" density="32.27" laneDensity="32.27" occupancy="14.68" waitingTime="1102.00" timeLoss="1204.60" speed="1.01" speedRelative="0.07" departed="3" arrived="2" entered="80" left="80" laneChangedFrom="0" laneChangedTo="0"/>
        <edge id="-1185209422#0" sampledSeconds="18349.62" traveltime="101.63" overlapTraveltime="105.20" density="108.89" laneDensity="108.89" occupancy="49.12" waitingTime="16794.00" timeLoss="17919.92" speed="0.49" speedRelative="0.02" departed="4" arrived="4" entered="183" left="176" laneChangedFrom="0" laneChangedTo="0" teleported="2"/>
        <edge id="-1185209422#1" sampledSeconds="4010.96" traveltime="19.58" overlapTraveltime="22.92" density="88.50" laneDensity="88.50" occupancy="38.30" waitingTime="3639.00" timeLoss="3871.31" speed="0.77" speedRelative="0.03" departed="3" arrived="1" entered="185" left="183" laneChangedFrom="0" laneChangedTo="0" teleported="2"/>
        <edge id="-1185209422#2" sampledSeconds="22476.35" traveltime="123.02" overlapTraveltime="123.87" density="87.87" laneDensity="87.87" occupancy="43.39" waitingTime="20599.00" timeLoss="21850.18" speed="0.61" speedRelative="0.03" departed="0" arrived="1" entered="196" left="185" laneChangedFrom="0" laneChangedTo="0" teleported="4"/>
        <edge id="-1185467340" sampledSeconds="4329.74" traveltime="84.92" overlapTraveltime="95.33" density="21.44" laneDensity="21.44" occupancy="10.09" waitingTime="2882.00" timeLoss="3378.45" speed="0.64" speedRelative="0.23" departed="3" arrived="4" entered="43" left="42" laneChangedFrom="0" laneChangedTo="0"/>
        <edge id="-1185467975" sampledSeconds="0.00" departed="0" arrived="0" entered="0" left="0" laneChangedFrom="0" laneChangedTo="0"/>
        <edge id="-1185468746" sampledSeconds="44.99" traveltime="2.34" overlapTraveltime="2.98" density="1.05" laneDensity="1.05" occupancy="0.37" waitingTime="0.00" timeLoss="27.42" speed="5.67" speedRelative="0.41" departed="2" arrived="3" entered="14" left="13" laneChangedFrom="0" laneChangedTo="0"/>
        <edge id="-1185469198" sampledSeconds="0.00" departed="0" arrived="0" entered="0" left="0" laneChangedFrom="0" laneChangedTo="0"/>
        <edge id="-1185875477" sampledSeconds="0.00" departed="0" arrived="0" entered="0" left="0" laneChangedFrom="0" laneChangedTo="0"/>
        <edge id="-1185876385" sampledSeconds="26.48" traveltime="6.26" overlapTraveltime="6.64" density="0.10" laneDensity="0.10" occupancy="0.05" waitingTime="0.00" timeLoss="4.03" speed="11.62" speedRelative="0.84" departed="0" arrived="4" entered="4" left="0" laneChangedFrom="0" laneChangedTo="0"/>
        <edge id="-1185877001" sampledSeconds="35.41" traveltime="2.96" overlapTraveltime="3.74" density="0.71" laneDensity="0.71" occupancy="0.27" waitingTime="0.00" timeLoss="17.63" speed="5.03" speedRelative="0.36" departed="2" arrived="0" entered="8" left="10" laneChangedFrom="0" laneChangedTo="0"/>
        <edge id="-1213264717" sampledSeconds="114.30" traveltime="26.22" overlapTraveltime="27.30" density="0.97" laneDensity="0.97" occupancy="0.48" waitingTime="82.00" timeLoss="101.47" speed="1.38" speedRelative="0.10" departed="5" arrived="0" entered="0" left="4" laneChangedFrom="0" laneChangedTo="0"/>
        <edge id="-1215278306#0" sampledSeconds="78.25" traveltime="3.20" overlapTraveltime="4.16" density="0.94" laneDensity="0.94" occupancy="0.40" waitingTime="0.00" timeLoss="34.23" speed="6.75" speedRelative="0.49" departed="6" arrived="4" entered="14" left="16" laneChangedFrom="0" laneChangedTo="0"/>
        <edge id="-1215278306#1" sampledSeconds="132.34" traveltime="2.43" overlapTraveltime="3.20" density="2.11" laneDensity="2.11" occupancy="0.82" waitingTime="0.00" timeLoss="58.76" speed="7.01" speedRelative="0.50" departed="4" arrived="8" entered="39" left="35" laneChangedFrom="0" laneChangedTo="0"/>
        <edge id="-1215337274#1" sampledSeconds="45.49" traveltime="0.81" overlapTraveltime="1.78" density="63.18" laneDensity="63.18" occupancy="1.00" waitingTime="16.00" timeLoss="30.76" speed="2.92" speedRelative="0.21" departed="6" arrived="5" entered="22" left="23" laneChangedFrom="0" laneChangedTo="0"/>
        <edge id="-1215337274#2" sampledSeconds="82.10" traveltime="7.05" overlapTraveltime="7.57" density="0.39" laneDensity="0.39" occupancy="0.17" waitingTime="0.00" timeLoss="27.49" speed="8.43" speedRelative="0.61" departed="2" arrived="1" entered="9" left="10" laneChangedFrom="0" laneChangedTo="0"/>
        <edge id="-1215337274#3" sampledSeconds="98.94" traveltime="8.11" overlapTraveltime="9.56" density="0.47" laneDensity="0.47" occupancy="0.21" waitingTime="0.00" timeLoss="46.20" speed="6.69" speedRelative="0.48" departed="8" arrived="2" entered="3" left="9" laneChangedFrom="0" laneChangedTo="0"/>
        <edge id="-1227539673#0" sampledSeconds="1243.58" traveltime="40.22" overlapTraveltime="41.09" density="23.66" laneDensity="23.66" occupancy="11.61" waitingTime="1123.00" timeLoss="1184.29" speed="0.48" speedRelative="0.03" departed="5" arrived="2" entered="27" left="30" laneChangedFrom="0" laneChangedTo="0" teleported="1"/>
        <edge id="-1227539673#1" sampledSeconds="3208.70" traveltime="125.71" overlapTraveltime="139.40" density="16.80" laneDensity="16.80" occupancy="7.97" waitingTime="2970.00" timeLoss="3105.71" speed="0.42" speedRelative="0.03" departed="7" arrived="3" entered="17" left="20" laneChangedFrom="0" laneChangedTo="0" teleported="2"/>
        <edge id="-1227709810" sampledSeconds="0.00" departed="0" arrived="0" entered="0" left="0" laneChangedFrom="0" laneChangedTo="0"/>
        <edge id="-1227710024" sampledSeconds="33.81" traveltime="8.44" overlapTraveltime="9.62" density="0.25" laneDensity="0.25" occupancy="0.12" waitingTime="3.00" timeLoss="21.66" speed="4.36" speedRelative="0.31" departed="4" arrived="0" entered="0" left="4" laneChangedFrom="0" laneChangedTo="0"/>
        <edge id="-1227710144" sampledSeconds="0.00" departed="0" arrived="0" entered="0" left="0" laneChangedFrom="0" laneChangedTo="0"/>
        <edge id="-1227710722" sampledSeconds="0.00" departed="0" arrived="0" entered="0" left="0" laneChangedFrom="0" laneChangedTo="0"/>
        <edge id="-1227711130" sampledSeconds="0.00" departed="0" arrived="0" entered="0" left="0" laneChangedFrom="0" laneChangedTo="0"/>
        <edge id="-1227711710" sampledSeconds="0.00" departed="0" arrived="0" entered="0" left="0" laneChangedFrom="0" laneChangedTo="0"/>
        <edge id="-123629031#0" sampledSeconds="5.84" traveltime="2.03" overlapTraveltime="3.64" density="0.20" laneDensity="0.20" occupancy="0.07" waitingTime="0.00" timeLoss="2.86" speed="3.55" speedRelative="0.26" departed="1" arrived="0" entered="1" left="2" laneChangedFrom="0" laneChangedTo="0"/>
        <edge id="-123629031#1" sampledSeconds="16.76" traveltime="15.89" overlapTraveltime="16.76" density="0.02" laneDensity="0.02" occupancy="0.01" waitingTime="0.00" timeLoss="1.63" speed="13.85" speedRelative="1.00" departed="0" arrived="0" entered="1" left="1" laneChangedFrom="0" laneChangedTo="0"/>
        <edge id="-123629036#0" sampledSeconds="9.85" traveltime="1.74" overlapTraveltime="2.46" density="0.24" laneDensity="0.24" occupancy="0.09" waitingTime="0.00" timeLoss="3.78" speed="6.67" speedRelative="0.48" departed="0" arrived="0" entered="4" left="4" laneChangedFrom="0" laneChangedTo="0"/>
        <edge id="-123629036#1" sampledSeconds="15.27" traveltime="2.57" overlapTraveltime="3.20" density="0.24" laneDensity="0.24" occupancy="0.10" waitingTime="0.00" timeLoss="7.76" speed="7.14" speedRelative="0.51" departed="1" arrived="1" entered="4" left="4" laneChangedFrom="0" laneChangedTo="0"/>
        <edge id="-123629036#2" sampledSeconds="7.15" traveltime="2.06" overlapTraveltime="2.65" density="0.16" laneDensity="0.16" occupancy="0.06" waitingTime="0.00" timeLoss="3.95" speed="6.46" speedRelative="0.46" departed="1" arrived="0" entered="2" left="3" laneChangedFrom="0" laneChangedTo="0"/>
        <edge id="-123629036#3" sampledSeconds="6.11" traveltime="2.39" overlapTraveltime="3.13" density="0.11" laneDensity="0.11" occupancy="0.04" waitingTime="0.00" timeLoss="3.20" speed="6.65" speedRelative="0.48" departed="0" arrived="1" entered="2" left="1" laneChangedFrom="0" laneChangedTo="0"/>
        <edge id="-123629047" sampledSeconds="0.00" departed="0" arrived="0" entered="0" left="0" laneChangedFrom="0" laneChangedTo="0"/>
        <edge id="-123629099#0" sampledSeconds="10.96" traveltime="10.89" overlapTraveltime="11.58" density="0.03" laneDensity="0.03" occupancy="0.02" waitingTime="0.00" timeLoss="5.31" speed="8.17" speedRelative="0.59" departed="1" arrived="0" entered="0" left="1" laneChangedFrom="0" laneChangedTo="0"/>
        <edge id="-123629099#1" sampledSeconds="24.09" traveltime="5.22" overlapTraveltime="6.02" density="0.11" laneDensity="0.11" occupancy="0.05" waitingTime="0.00" timeLoss="2.74" speed="11.09" speedRelative="0.80" departed="0" arrived="1" entered="4" left="3" laneChangedFrom="0" laneChangedTo="0"/>
        <edge id="-123629099#2" sampledSeconds="7.77" traveltime="1.41" overlapTraveltime="1.94" density="0.20" laneDensity="0.20" occupancy="0.07" waitingTime="0.00" timeLoss="3.17" speed="8.02" speedRelative="0.58" departed="0" arrived="0" entered="4" left="4" laneChangedFrom="0" laneChangedTo="0"/>
        <edge id="-123629099#3" sampledSeconds="12.41" traveltime="3.83" overlapTraveltime="4.72" density="0.15" laneDensity="0.15" occupancy="0.07" waitingTime="0.00" timeLoss="6.32" speed="5.81" speedRelative="0.42" departed="2" arrived="0" entered="1" left="3" laneChangedFrom="0" laneChangedTo="0"/>
        <edge id="-123629137#0" sampledSeconds="0.00" departed="0" arrived="0" entered="0" left="0" laneChangedFrom="0" laneChangedTo="0"/>
        <edge id="-123629137#1" sampledSeconds="8.43" traveltime="6.90" overlapTraveltime="8.43" density="0.03" laneDensity="0.03" occupancy="0.01" waitingTime="0.00" timeLoss="1.28" speed="9.88" speedRelative="0.71" departed="0" arrived="0" entered="1" left="1" laneChangedFrom="0" laneChangedTo="0"/>
        <edge id="-123629137#2" sampledSeconds="3.56" traveltime="1.50" overlapTraveltime="2.18" density="0.11" laneDensity="0.11" occupancy="0.04" waitingTime="0.00" timeLoss="1.63" speed="6.29" speedRelative="0.45" departed="1" arrived="0" entered="1" left="2" laneChangedFrom="0" laneChangedTo="0"/>
        <edge id="-123629137#3" sampledSeconds="3.76" traveltime="1.49" overlapTraveltime="1.88" density="0.06" laneDensity="0.06" occupancy="0.02" waitingTime="0.00" timeLoss="0.72" speed="11.52" speedRelative="0.83" departed="0" arrived="1" entered="2" left="1" laneChangedFrom="0" laneChangedTo="0"/>