<?xml version="1.0" encoding="UTF-8"?>

<!-- generated on 2025-09-21 02:09:32 by Eclipse SUMO GUI Version 1.24.0
<sumoConfiguration xmlns:xsi="http://www.w3.org/2001/XMLSchema-instance" xsi:noNamespaceSchemaLocation="http://sumo.dlr.de/xsd/sumoConfiguration.xsd">

    <input>
        <net-file value="../Banglore_Silk_Junction/osm.net.xml.gz"/>
        <route-files value="../Banglore_Silk_Junction/osm.routes.xml"/>
        <additional-files value="../Banglore_Silk_Junction/osm.poly.xml.gz,../Banglore_Silk_Junction/output.add.xml"/>
    </input>

    <output>
        <tripinfo-output value="../Banglore_Silk_Junction/tripinfos.xml"/>
        <statistic-output value="../Banglore_Silk_Junction/stats.xml"/>
    </output>

    <time>
        <step-length value="0.5"/>
    </time>

    <processing>
        <ignore-route-errors value="true"/>
        <tls.actuated.jam-threshold value="30"/>
    </processing>

    <routing>
        <device.rerouting.adaptation-steps value="18"/>
        <device.rerouting.adaptation-interval value="10"/>
    </routing>

    <report>
        <verbose value="true"/>
        <duration-log.statistics value="true"/>
        <no-step-log value="true"/>
    </report>

    <traci_server>
        <remote-port value="8813"/>
    </traci_server>

    <gui_only>
        <gui-settings-file value="../Banglore_Silk_Junction/osm.view.xml"/>
        <start value="true"/>
    </gui_only>

</sumoConfiguration>
-->

<meandata xmlns:xsi="http://www.w3.org/2001/XMLSchema-instance" xsi:noNamespaceSchemaLocation="http://sumo.dlr.de/xsd/meandata_file.xsd">
    <interval begin="0.00" end="811.50" id="wizard_example">
        <edge id="-1030669035" sampledSeconds="26.65" traveltime="6.21" overlapTraveltime="7.54" density="1.03" laneDensity="1.03" occupancy="0.46" waitingTime="0.00" timeLoss="14.00" speed="4.88" speedRelative="0.35" departed="3" arrived="1" entered="1" left="3" laneChangedFrom="0" laneChangedTo="0"/>
        <edge id="-1042112410" sampledSeconds="321.31" traveltime="88.56" overlapTraveltime="65.01" density="133.33" laneDensity="133.33" occupancy="26.50" waitingTime="308.00" timeLoss="319.36" speed="0.08" speedRelative="0.00" departed="2" arrived="0" entered="4" left="5" laneChangedFrom="0" laneChangedTo="0"/>
        <edge id="-1063933802#0" sampledSeconds="264.13" traveltime="26.14" overlapTraveltime="27.65" density="2.52" laneDensity="2.52" occupancy="1.22" waitingTime="138.00" timeLoss="164.34" speed="4.85" speedRelative="0.35" departed="1" arrived="0" entered="9" left="9" laneChangedFrom="0" laneChangedTo="0"/>
        <edge id="-1063933802#1" sampledSeconds="68.94" traveltime="7.10" overlapTraveltime="7.49" density="1.19" laneDensity="1.19" occupancy="0.56" waitingTime="0.00" timeLoss="17.11" speed="10.21" speedRelative="0.74" departed="3" arrived="0" entered="7" left="9" laneChangedFrom="0" laneChangedTo="0"/>
        <edge id="-1063933802#2" sampledSeconds="15.27" traveltime="3.57" overlapTraveltime="3.95" density="0.59" laneDensity="0.59" occupancy="0.26" waitingTime="0.00" timeLoss="5.09" speed="9.36" speedRelative="0.67" departed="1" arrived="0" entered="3" left="4" laneChangedFrom="0" laneChangedTo="0"/>
        <edge id="-1063933802#3" sampledSeconds="24.08" traveltime="7.64" overlapTraveltime="8.23" density="0.46" laneDensity="0.46" occupancy="0.21" waitingTime="0.00" timeLoss="8.61" speed="8.50" speedRelative="0.61" departed="1" arrived="0" entered="2" left="3" laneChangedFrom="0" laneChangedTo="0"/>
        <edge id="-1065415314" sampledSeconds="9.51" traveltime="8.29" overlapTraveltime="9.51" density="0.15" laneDensity="0.15" occupancy="0.07" waitingTime="0.00" timeLoss="3.89" speed="8.48" speedRelative="0.61" departed="0" arrived="0" entered="1" left="1" laneChangedFrom="0" laneChangedTo="0"/>
        <edge id="-1066726717" sampledSeconds="0.00" departed="0" arrived="0" entered="0" left="0" laneChangedFrom="0" laneChangedTo="0"/>
        <edge id="-1074282737" sampledSeconds="0.00" departed="0" arrived="0" entered="0" left="0" laneChangedFrom="0" laneChangedTo="0"/>
        <edge id="-1074282738" sampledSeconds="0.00" departed="0" arrived="0" entered="0" left="0" laneChangedFrom="0" laneChangedTo="0"/>
        <edge id="-1087955058" sampledSeconds="0.00" departed="0" arrived="0" entered="0" left="0" laneChangedFrom="0" laneChangedTo="0"/>
        <edge id="-1090570621" sampledSeconds="0.00" departed="0" arrived="0" entered="0" left="0" laneChangedFrom="0" laneChangedTo="0"/>
        <edge id="-1090570622" sampledSeconds="0.00" departed="0" arrived="0" entered="0" left="0" laneChangedFrom="0" laneChangedTo="0"/>
        <edge id="-1090570624#0" sampledSeconds="0.00" departed="0" arrived="0" entered="0" left="0" laneChangedFrom="0" laneChangedTo="0"/>
        <edge id="-1090570625#0" sampledSeconds="0.00" departed="0" arrived="0" entered="0" left="0" laneChangedFrom="0" laneChangedTo="0"/>
        <edge id="-1090570625#1" sampledSeconds="0.00" departed="0" arrived="0" entered="0" left="0" laneChangedFrom="0" laneChangedTo="0"/>
        <edge id="-1090570626" sampledSeconds="0.00" departed="0" arrived="0" entered="0" left="0" laneChangedFrom="0" laneChangedTo="0"/>
        <edge id="-1101675581" sampledSeconds="0.00" departed="0" arrived="0" entered="0" left="0" laneChangedFrom="0" laneChangedTo="0"/>
        <edge id="-1101675582" sampledSeconds="0.00" departed="0" arrived="0" entered="0" left="0" laneChangedFrom="0" laneChangedTo="0"/>
        <edge id="-1101675583" sampledSeconds="37.83" traveltime="7.37" overlapTraveltime="8.40" density="2.98" laneDensity="2.98" occupancy="1.31" waitingTime="16.50" timeLoss="28.95" speed="2.46" speedRelative="0.18" departed="2" arrived="0" entered="3" left="5" laneChangedFrom="0" laneChangedTo="0"/>
        <edge id="-1101675584#0" sampledSeconds="0.00" departed="0" arrived="0" entered="0" left="0" laneChangedFrom="0" laneChangedTo="0"/>
        <edge id="-1101675584#1" sampledSeconds="0.00" departed="0" arrived="0" entered="0" left="0" laneChangedFrom="0" laneChangedTo="0"/>
        <edge id="-1101690250#0" sampledSeconds="0.00" departed="0" arrived="0" entered="0" left="0" laneChangedFrom="0" laneChangedTo="0"/>
        <edge id="-1101690250#1" sampledSeconds="0.00" departed="0" arrived="0" entered="0" left="0" laneChangedFrom="0" laneChangedTo="0"/>
        <edge id="-1101690250#2" sampledSeconds="0.00" departed="0" arrived="0" entered="0" left="0" laneChangedFrom="0" laneChangedTo="0"/>
        <edge id="-1101690250#3" sampledSeconds="0.00" departed="0" arrived="0" entered="0" left="0" laneChangedFrom="0" laneChangedTo="0"/>
        <edge id="-1101690251" sampledSeconds="0.00" departed="0" arrived="0" entered="0" left="0" laneChangedFrom="0" laneChangedTo="0"/>
        <edge id="-1101690252" sampledSeconds="0.00" departed="0" arrived="0" entered="0" left="0" laneChangedFrom="0" laneChangedTo="0"/>
        <edge id="-1101690254#0" sampledSeconds="0.00" departed="0" arrived="0" entered="0" left="0" laneChangedFrom="0" laneChangedTo="0"/>
        <edge id="-1101690254#2" sampledSeconds="0.00" departed="0" arrived="0" entered="0" left="0" laneChangedFrom="0" laneChangedTo="0"/>
        <edge id="-1101690289" sampledSeconds="0.00" departed="0" arrived="0" entered="0" left="0" laneChangedFrom="0" laneChangedTo="0"/>
        <edge id="-1101690290" sampledSeconds="21.54" traveltime="4.98" overlapTraveltime="5.68" density="0.60" laneDensity="0.60" occupancy="0.27" waitingTime="0.00" timeLoss="7.50" speed="8.63" speedRelative="0.62" departed="1" arrived="3" entered="3" left="1" laneChangedFrom="0" laneChangedTo="0"/>
        <edge id="-1101690293" sampledSeconds="0.00" departed="0" arrived="0" entered="0" left="0" laneChangedFrom="0" laneChangedTo="0"/>
        <edge id="-1101696116#0" sampledSeconds="0.00" departed="0" arrived="0" entered="0" left="0" laneChangedFrom="0" laneChangedTo="0"/>
        <edge id="-1101696116#1" sampledSeconds="0.00" departed="0" arrived="0" entered="0" left="0" laneChangedFrom="0" laneChangedTo="0"/>
        <edge id="-1101696117" sampledSeconds="0.00" departed="0" arrived="0" entered="0" left="0" laneChangedFrom="0" laneChangedTo="0"/>
        <edge id="-1101696118" sampledSeconds="0.00" departed="0" arrived="0" entered="0" left="0" laneChangedFrom="0" laneChangedTo="0"/>
        <edge id="-1102833440" sampledSeconds="13.97" traveltime="16.11" overlapTraveltime="17.49" density="0.85" laneDensity="0.85" occupancy="0.40" waitingTime="7.50" timeLoss="12.35" speed="1.45" speedRelative="0.10" departed="1" arrived="0" entered="0" left="1" laneChangedFrom="0" laneChangedTo="0"/>
        <edge id="-1102833441" sampledSeconds="384.04" traveltime="117.64" overlapTraveltime="121.88" density="18.90" laneDensity="18.90" occupancy="9.36" waitingTime="350.00" timeLoss="375.21" speed="0.25" speedRelative="0.02" departed="4" arrived="0" entered="0" left="3" laneChangedFrom="0" laneChangedTo="0"/>
        <edge id="-1102833442" sampledSeconds="314.30" traveltime="175.84" overlapTraveltime="191.97" density="16.75" laneDensity="16.75" occupancy="8.34" waitingTime="301.00" timeLoss="311.03" speed="0.15" speedRelative="0.01" departed="1" arrived="0" entered="1" left="1" laneChangedFrom="0" laneChangedTo="0"/>
        <edge id="-1106333599#0" sampledSeconds="0.00" departed="0" arrived="0" entered="0" left="0" laneChangedFrom="0" laneChangedTo="0"/>
        <edge id="-1106333599#1" sampledSeconds="0.00" departed="0" arrived="0" entered="0" left="0" laneChangedFrom="0" laneChangedTo="0"/>
        <edge id="-1107102893" sampledSeconds="0.00" departed="0" arrived="0" entered="0" left="0" laneChangedFrom="0" laneChangedTo="0"/>
        <edge id="-1109597642" sampledSeconds="22.05" traveltime="4.82" overlapTraveltime="5.77" density="0.78" laneDensity="0.78" occupancy="0.34" waitingTime="0.00" timeLoss="9.07" speed="6.89" speedRelative="0.50" departed="1" arrived="1" entered="3" left="3" laneChangedFrom="0" laneChangedTo="0"/>
        <edge id="-1109599638" sampledSeconds="18.18" traveltime="8.99" overlapTraveltime="9.83" density="0.36" laneDensity="0.36" occupancy="0.17" waitingTime="0.00" timeLoss="8.24" speed="6.83" speedRelative="0.49" departed="2" arrived="0" entered="0" left="2" laneChangedFrom="0" laneChangedTo="0"/>
        <edge id="-1109599639" sampledSeconds="8.47" traveltime="4.07" overlapTraveltime="4.47" density="0.23" laneDensity="0.23" occupancy="0.10" waitingTime="0.00" timeLoss="1.86" speed="11.36" speedRelative="0.82" departed="0" arrived="2" entered="2" left="0" laneChangedFrom="0" laneChangedTo="0"/>
        <edge id="-1109599640" sampledSeconds="7.59" traveltime="0.03" overlapTraveltime="0.76" density="46.78" laneDensity="46.78" occupancy="0.90" waitingTime="0.00" timeLoss="4.01" speed="6.85" speedRelative="0.49" departed="0" arrived="0" entered="10" left="10" laneChangedFrom="0" laneChangedTo="0"/>
        <edge id="-1109599641" sampledSeconds="4.94" traveltime="0.06" overlapTraveltime="0.65" density="13.84" laneDensity="13.84" occupancy="0.56" waitingTime="0.00" timeLoss="2.14" speed="8.34" speedRelative="0.60" departed="0" arrived="1" entered="8" left="7" laneChangedFrom="0" laneChangedTo="0"/>
        <edge id="-1109599642" sampledSeconds="288.91" traveltime="2.62" overlapTraveltime="3.57" density="27.53" laneDensity="27.53" occupancy="10.66" waitingTime="47.00" timeLoss="135.69" speed="5.03" speedRelative="0.36" departed="0" arrived="0" entered="81" left="81" laneChangedFrom="0" laneChangedTo="0"/>
        <edge id="-1109599644" sampledSeconds="26.06" traveltime="0.03" overlapTraveltime="0.65" density="128.47" laneDensity="128.47" occupancy="3.07" waitingTime="0.00" timeLoss="10.74" speed="8.04" speedRelative="0.58" departed="2" arrived="0" entered="38" left="40" laneChangedFrom="0" laneChangedTo="0"/>
        <edge id="-1109599645" sampledSeconds="28.08" traveltime="4.97" overlapTraveltime="5.74" density="0.80" laneDensity="0.80" occupancy="0.36" waitingTime="1.00" timeLoss="11.14" speed="8.41" speedRelative="0.61" departed="1" arrived="0" entered="4" left="5" laneChangedFrom="0" laneChangedTo="0"/>
        <edge id="-1109599646" sampledSeconds="9.47" traveltime="8.32" overlapTraveltime="10.67" density="0.29" laneDensity="0.29" occupancy="0.13" waitingTime="0.00" timeLoss="6.55" speed="4.27" speedRelative="0.31" departed="1" arrived="0" entered="0" left="1" laneChangedFrom="0" laneChangedTo="0"/>
        <edge id="-1109599647" sampledSeconds="38.90" traveltime="0.31" overlapTraveltime="1.01" density="29.77" laneDensity="29.77" occupancy="3.54" waitingTime="1.00" timeLoss="20.29" speed="6.53" speedRelative="0.47" departed="1" arrived="1" entered="38" left="38" laneChangedFrom="0" laneChangedTo="0"/>
        <edge id="-1109599648" sampledSeconds="5.74" traveltime="0.02" overlapTraveltime="0.75" density="35.34" laneDensity="35.34" occupancy="0.69" waitingTime="0.00" timeLoss="2.58" speed="6.89" speedRelative="0.50" departed="1" arrived="0" entered="7" left="8" laneChangedFrom="0" laneChangedTo="0"/>
        <edge id="-1109599649" sampledSeconds="8.22" traveltime="0.13" overlapTraveltime="1.28" density="8.10" laneDensity="8.10" occupancy="0.90" waitingTime="0.00" timeLoss="5.09" speed="4.87" speedRelative="0.35" departed="3" arrived="0" entered="4" left="7" laneChangedFrom="0" laneChangedTo="0"/>
        <edge id="-1109898611" sampledSeconds="0.00" departed="0" arrived="0" entered="0" left="0" laneChangedFrom="0" laneChangedTo="0"/>
        <edge id="-1109899901" sampledSeconds="11.23" traveltime="5.97" overlapTraveltime="6.66" density="0.51" laneDensity="0.51" occupancy="0.24" waitingTime="0.00" timeLoss="6.56" speed="4.86" speedRelative="0.35" departed="2" arrived="0" entered="0" left="2" laneChangedFrom="0" laneChangedTo="0"/>
        <edge id="-1109900439" sampledSeconds="0.00" departed="0" arrived="0" entered="0" left="0" laneChangedFrom="0" laneChangedTo="0"/>
        <edge id="-1109900833" sampledSeconds="0.00" departed="0" arrived="0" entered="0" left="0" laneChangedFrom="0" laneChangedTo="0"/>
        <edge id="-1109900834" sampledSeconds="62.96" traveltime="22.40" overlapTraveltime="35.45" density="1.92" laneDensity="1.92" occupancy="0.74" waitingTime="42.00" timeLoss="55.90" speed="1.28" speedRelative="0.09" departed="2" arrived="0" entered="0" left="2" laneChangedFrom="0" laneChangedTo="0"/>
        <edge id="-1109900835" sampledSeconds="40.56" traveltime="20.68" overlapTraveltime="21.98" density="1.79" laneDensity="1.79" occupancy="0.85" waitingTime="27.50" timeLoss="35.14" speed="1.50" speedRelative="0.11" departed="1" arrived="0" entered="1" left="2" laneChangedFrom="0" laneChangedTo="0"/>
        <edge id="-1109908411" sampledSeconds="0.00" departed="0" arrived="0" entered="0" left="0" laneChangedFrom="0" laneChangedTo="0"/>
        <edge id="-1110193765" sampledSeconds="7.90" traveltime="3.78" overlapTraveltime="4.43" density="0.52" laneDensity="0.52" occupancy="0.22" waitingTime="0.00" timeLoss="4.33" speed="5.35" speedRelative="0.39" departed="1" arrived="0" entered="1" left="2" laneChangedFrom="0" laneChangedTo="0"/>
        <edge id="-1110221362" sampledSeconds="400.04" traveltime="81.12" overlapTraveltime="82.43" density="7.65" laneDensity="7.65" occupancy="3.79" waitingTime="336.50" timeLoss="373.98" speed="0.84" speedRelative="0.06" departed="2" arrived="0" entered="3" left="5" laneChangedFrom="0" laneChangedTo="0"/>
        <edge id="-1110221663" sampledSeconds="79.86" traveltime="42.59" overlapTraveltime="44.39" density="1.38" laneDensity="1.38" occupancy="0.69" waitingTime="60.50" timeLoss="69.17" speed="1.72" speedRelative="0.12" departed="2" arrived="0" entered="0" left="1" laneChangedFrom="0" laneChangedTo="0"/>
        <edge id="-1110221920" sampledSeconds="19.98" traveltime="2.59" overlapTraveltime="3.19" density="1.58" laneDensity="1.58" occupancy="0.66" waitingTime="0.00" timeLoss="11.19" speed="6.43" speedRelative="0.46" departed="3" arrived="0" entered="4" left="7" laneChangedFrom="0" laneChangedTo="0"/>
        <edge id="-1118275525" sampledSeconds="52.23" traveltime="0.54" overlapTraveltime="1.41" density="31.09" laneDensity="31.09" occupancy="4.81" waitingTime="4.00" timeLoss="24.01" speed="5.00" speedRelative="0.36" departed="1" arrived="2" entered="37" left="36" laneChangedFrom="0" laneChangedTo="0"/>
        <edge id="-1124477406" sampledSeconds="0.00" departed="0" arrived="0" entered="0" left="0" laneChangedFrom="0" laneChangedTo="0"/>
        <edge id="-1150869431#1" sampledSeconds="868.35" traveltime="44.83" overlapTraveltime="45.92" density="21.01" laneDensity="21.01" occupancy="10.36" waitingTime="689.50" timeLoss="809.49" speed="1.22" speedRelative="0.05" departed="1" arrived="0" entered="18" left="19" laneChangedFrom="0" laneChangedTo="0"/>
        <edge id="-1150869431#2" sampledSeconds="60.70" traveltime="3.02" overlapTraveltime="3.40" density="2.43" laneDensity="2.43" occupancy="1.04" waitingTime="0.00" timeLoss="30.78" speed="10.54" speedRelative="0.47" departed="1" arrived="0" entered="17" left="18" laneChangedFrom="0" laneChangedTo="0"/>
        <edge id="-1165663724" sampledSeconds="136.47" traveltime="12.30" overlapTraveltime="13.75" density="2.80" laneDensity="2.80" occupancy="1.32" waitingTime="61.50" timeLoss="87.77" speed="4.73" speedRelative="0.34" departed="0" arrived="2" entered="10" left="8" laneChangedFrom="0" laneChangedTo="0"/>
        <edge id="-1182440755" sampledSeconds="0.00" departed="0" arrived="0" entered="0" left="0" laneChangedFrom="0" laneChangedTo="0"/>
        <edge id="-1185209421#0" sampledSeconds="1001.83" traveltime="39.21" overlapTraveltime="40.82" density="28.02" laneDensity="28.02" occupancy="13.76" waitingTime="804.00" timeLoss="909.24" speed="1.20" speedRelative="0.09" departed="1" arrived="1" entered="25" left="21" laneChangedFrom="0" laneChangedTo="0"/>
        <edge id="-1185209421#2" sampledSeconds="81.22" traveltime="4.41" overlapTraveltime="4.80" density="1.95" laneDensity="1.95" occupancy="0.89" waitingTime="0.00" timeLoss="10.66" speed="11.70" speedRelative="0.84" departed="1" arrived="0" entered="16" left="17" laneChangedFrom="0" laneChangedTo="0"/>
        <edge id="-1185209421#3" sampledSeconds="20.00" traveltime="1.51" overlapTraveltime="2.04" density="2.20" laneDensity="2.20" occupancy="0.76" waitingTime="0.00" timeLoss="7.95" speed="7.95" speedRelative="0.57" departed="0" arrived="1" entered="10" left="9" laneChangedFrom="0" laneChangedTo="0"/>
        <edge id="-1185209422#0" sampledSeconds="1531.95" traveltime="22.58" overlapTraveltime="23.16" density="40.33" laneDensity="40.33" occupancy="19.85" waitingTime="1294.00" timeLoss="1370.62" speed="2.24" speedRelative="0.10" departed="0" arrived="3" entered="69" left="60" laneChangedFrom="0" laneChangedTo="0"/>
        <edge id="-1185209422#1" sampledSeconds="485.68" traveltime="6.55" overlapTraveltime="6.84" density="47.54" laneDensity="47.54" occupancy="22.74" waitingTime="415.50" timeLoss="429.32" speed="2.57" speedRelative="0.12" departed="0" arrived="1" entered="72" left="69" laneChangedFrom="0" laneChangedTo="0"/>
        <edge id="-1185209422#2" sampledSeconds="1879.67" traveltime="23.83" overlapTraveltime="24.18" density="32.60" laneDensity="32.60" occupancy="16.04" waitingTime="1442.00" timeLoss="1613.14" speed="3.14" speedRelative="0.14" departed="0" arrived="1" entered="82" left="72" laneChangedFrom="0" laneChangedTo="0"/>
        <edge id="-1185467340" sampledSeconds="56.20" traveltime="22.29" overlapTraveltime="23.97" density="1.23" laneDensity="1.23" occupancy="0.58" waitingTime="0.00" timeLoss="7.27" speed="2.55" speedRelative="0.92" departed="0" arrived="1" entered="3" left="1" laneChangedFrom="0" laneChangedTo="0"/>
        <edge id="-1185467975" sampledSeconds="0.00" departed="0" arrived="0" entered="0" left="0" laneChangedFrom="0" laneChangedTo="0"/>
        <edge id="-1185468746" sampledSeconds="35.41" traveltime="2.28" overlapTraveltime="2.94" density="3.66" laneDensity="3.66" occupancy="1.32" waitingTime="0.00" timeLoss="21.21" speed="5.75" speedRelative="0.41" departed="2" arrived="3" entered="11" left="10" laneChangedFrom="0" laneChangedTo="0"/>
        <edge id="-1185469198" sampledSeconds="0.00" departed="0" arrived="0" entered="0" left="0" laneChangedFrom="0" laneChangedTo="0"/>
        <edge id="-1185875477" sampledSeconds="0.00" departed="0" arrived="0" entered="0" left="0" laneChangedFrom="0" laneChangedTo="0"/>
        <edge id="-1185876385" sampledSeconds="5.86" traveltime="5.84" overlapTraveltime="6.24" density="0.10" laneDensity="0.10" occupancy="0.05" waitingTime="0.00" timeLoss="1.04" speed="12.37" speedRelative="0.89" departed="0" arrived="1" entered="1" left="0" laneChangedFrom="0" laneChangedTo="0"/>
        <edge id="-1185877001" sampledSeconds="13.30" traveltime="2.76" overlapTraveltime="3.57" density="1.19" laneDensity="1.19" occupancy="0.43" waitingTime="0.00" timeLoss="5.76" speed="5.27" speedRelative="0.38" departed="1" arrived="0" entered="3" left="4" laneChangedFrom="0" laneChangedTo="0"/>
        <edge id="-1213264717" sampledSeconds="19.30" traveltime="6.56" overlapTraveltime="7.44" density="0.73" laneDensity="0.73" occupancy="0.34" waitingTime="0.00" timeLoss="12.11" speed="5.05" speedRelative="0.36" departed="3" arrived="0" entered="0" left="3" laneChangedFrom="0" laneChangedTo="0"/>
        <edge id="-1215278306#0" sampledSeconds="11.76" traveltime="2.95" overlapTraveltime="3.93" density="0.63" laneDensity="0.63" occupancy="0.27" waitingTime="1.00" timeLoss="5.69" speed="7.13" speedRelative="0.51" departed="0" arrived="1" entered="3" left="2" laneChangedFrom="0" laneChangedTo="0"/>
        <edge id="-1215278306#1" sampledSeconds="67.36" traveltime="2.37" overlapTraveltime="3.45" density="4.76" laneDensity="4.76" occupancy="1.69" waitingTime="4.00" timeLoss="30.83" speed="6.51" speedRelative="0.47" departed="1" arrived="3" entered="19" left="17" laneChangedFrom="0" laneChangedTo="0"/>
        <edge id="-1215337274#1" sampledSeconds="17.48" traveltime="1.78" overlapTraveltime="2.43" density="107.68" laneDensity="107.68" occupancy="2.13" waitingTime="7.00" timeLoss="13.37" speed="2.14" speedRelative="0.15" departed="4" arrived="1" entered="4" left="7" laneChangedFrom="0" laneChangedTo="0"/>
        <edge id="-1215337274#2" sampledSeconds="18.13" traveltime="7.81" overlapTraveltime="8.40" density="0.38" laneDensity="0.38" occupancy="0.17" waitingTime="0.00" timeLoss="7.27" speed="7.60" speedRelative="0.55" departed="1" arrived="1" entered="2" left="1" laneChangedFrom="0" laneChangedTo="0"/>
        <edge id="-1215337274#3" sampledSeconds="17.72" traveltime="7.56" overlapTraveltime="9.23" density="0.37" laneDensity="0.37" occupancy="0.17" waitingTime="0.00" timeLoss="7.32" speed="6.93" speedRelative="0.50" departed="1" arrived="0" entered="1" left="2" laneChangedFrom="0" laneChangedTo="0"/>
        <edge id="-1227539673#0" sampledSeconds="3.44" traveltime="4.06" overlapTraveltime="4.65" density="0.29" laneDensity="0.29" occupancy="0.13" waitingTime="0.00" timeLoss="1.89" speed="4.22" speedRelative="0.30" departed="1" arrived="0" entered="0" left="1" laneChangedFrom="0" laneChangedTo="0"/>
        <edge id="-1227539673#1" sampledSeconds="28.98" traveltime="7.09" overlapTraveltime="7.89" density="0.67" laneDensity="0.67" occupancy="0.32" waitingTime="0.00" timeLoss="11.48" speed="7.36" speedRelative="0.53" departed="3" arrived="1" entered="1" left="3" laneChangedFrom="0" laneChangedTo="0"/>
        <edge id="-1227709810" sampledSeconds="0.00" departed="0" arrived="0" entered="0" left="0" laneChangedFrom="0" laneChangedTo="0"/>
        <edge id="-1227710024" sampledSeconds="6.37" traveltime="6.40" overlapTraveltime="7.25" density="0.21" laneDensity="0.21" occupancy="0.10" waitingTime="0.00" timeLoss="3.05" speed="5.78" speedRelative="0.42" departed="1" arrived="0" entered="0" left="1" laneChangedFrom="0" laneChangedTo="0"/>
        <edge id="-1227710144" sampledSeconds="0.00" departed="0" arrived="0" entered="0" left="0" laneChangedFrom="0" laneChangedTo="0"/>
        <edge id="-1227710722" sampledSeconds="0.00" departed="0" arrived="0" entered="0" left="0" laneChangedFrom="0" laneChangedTo="0"/>
        <edge id="-1227711130" sampledSeconds="0.00" departed="0" arrived="0" entered="0" left="0" laneChangedFrom="0" laneChangedTo="0"/>
        <edge id="-1227711710" sampledSeconds="0.00" departed="0" arrived="0" entered="0" left="0" laneChangedFrom="0" laneChangedTo="0"/>
        <edge id="-123629031#0" sampledSeconds="3.41" traveltime="1.79" overlapTraveltime="3.41" density="0.53" laneDensity="0.53" occupancy="0.17" waitingTime="0.00" timeLoss="1.49" speed="3.78" speedRelative="0.27" departed="0" arrived="0" entered="1" left="1" laneChangedFrom="0" laneChangedTo="0"/>
        <edge id="-123629031#1" sampledSeconds="16.16" traveltime="15.35" overlapTraveltime="16.16" density="0.09" laneDensity="0.09" occupancy="0.04" waitingTime="0.00" timeLoss="1.03" speed="14.36" speedRelative="1.03" departed="0" arrived="0" entered="1" left="1" laneChangedFrom="0" laneChangedTo="0"/>
        <edge id="-123629036#0" sampledSeconds="4.21" traveltime="1.49" overlapTraveltime="2.10" density="0.45" laneDensity="0.45" occupancy="0.16" waitingTime="0.00" timeLoss="1.07" speed="7.80" speedRelative="0.56" departed="0" arrived="0" entered="2" left="2" laneChangedFrom="0" laneChangedTo="0"/>
        <edge id="-123629036#1" sampledSeconds="5.55" traveltime="2.20" overlapTraveltime="2.78" density="0.38" laneDensity="0.38" occupancy="0.15" waitingTime="0.00" timeLoss="2.41" speed="8.23" speedRelative="0.59" departed="0" arrived="0" entered="2" left="2" laneChangedFrom="0" laneChangedTo="0"/>
        <edge id="-123629036#2" sampledSeconds="1.47" traveltime="1.08" overlapTraveltime="1.47" density="0.15" laneDensity="0.15" occupancy="0.05" waitingTime="0.00" timeLoss="0.28" speed="11.61" speedRelative="0.84" departed="0" arrived="0" entered="1" left="1" laneChangedFrom="0" laneChangedTo="0"/>
        <edge id="-123629036#3" sampledSeconds="2.83" traveltime="2.16" overlapTraveltime="2.83" density="0.22" laneDensity="0.22" occupancy="0.09" waitingTime="0.00" timeLoss="1.37" speed="7.37" speedRelative="0.53" departed="0" arrived="0" entered="1" left="1" laneChangedFrom="0" laneChangedTo="0"/>
        <edge id="-123629047" sampledSeconds="0.00" departed="0" arrived="0" entered="0" left="0" laneChangedFrom="0" laneChangedTo="0"/>
        <edge id="-123629099#0" sampledSeconds="10.57" traveltime="10.44" overlapTraveltime="11.17" density="0.15" laneDensity="0.15" occupancy="0.07" waitingTime="0.00" timeLoss="4.91" speed="8.47" speedRelative="0.61" departed="1" arrived="0" entered="0" left="1" laneChangedFrom="0" laneChangedTo="0"/>
        <edge id="-123629099#1" sampledSeconds="0.00" departed="0" arrived="0" entered="0" left="0" laneChangedFrom="0" laneChangedTo="0"/>
        <edge id="-123629099#2" sampledSeconds="0.00" departed="0" arrived="0" entered="0" left="0" laneChangedFrom="0" laneChangedTo="0"/>
        <edge id="-123629099#3" sampledSeconds="12.71" traveltime="3.99" overlapTraveltime="4.84" density="0.70" laneDensity="0.70" occupancy="0.31" waitingTime="0.00" timeLoss="6.61" speed="5.67" speedRelative="0.41" departed="2" arrived="0" entered="1" left="3" laneChangedFrom="0" laneChangedTo="0"/>
        <edge id="-123629137#0" sampledSeconds="0.00" departed="0" arrived="0" entered="0" left="0" laneChangedFrom="0" laneChangedTo="0"/>
        <edge id="-123629137#1" sampledSeconds="7.93" traveltime="6.47" overlapTraveltime="7.93" density="0.12" laneDensity="0.12" occupancy="0.06" waitingTime="0.00" timeLoss="1.49" speed="10.50" speedRelative="0.76" departed="0" arrived="0" entered="1" left="1" laneChangedFrom="0" laneChangedTo="0"/>
        <edge id="-123629137#2" sampledSeconds="0.97" traveltime="0.61" overlapTraveltime="0.97" density="0.14" laneDensity="0.14" occupancy="0.04" waitingTime="0.00" timeLoss="0.02" speed="14.10" speedRelative="1.02" departed="0" arrived="0" entered="1" left="1" laneChangedFrom="0" laneChangedTo="0"/>
        <edge id="-123629137#3" sampledSeconds="3.70" traveltime="1.46" overlapTraveltime="1.85" density="0.27" laneDensity="0.27" occupancy="0.10" waitingTime="0.00" timeLoss="0.66" speed="11.71" speedRelative="0.84" departed="0" arrived="1" entered="2" left="1" laneChangedFrom="0" laneChangedTo="0"/>
        <edge id="-123629137#4" sampledSeconds="1.27" traveltime="0.91" overlapTraveltime="1.27" density="0.12" laneDensity="0.12" occupancy="0.04" waitingTime="0.00" timeLoss="0.02" speed="14.25" speedRelative="1.03" departed="0" arrived="0" entered="1" left="1" laneChangedFrom="0" laneChangedTo="0"/>
        <edge id="-123629179#0" sampledSeconds="32.06" traveltime="15.43" overlapTraveltime="16.37" density="0.24" laneDensity="0.24" occupancy="0.12" waitingTime="0.00" timeLoss="6.29" speed="10.22" speedRelative="0.74" departed="1" arrived="1" entered="1" left="1" laneChangedFrom="0" laneChangedTo="0"/>
        <edge id="-123629182#0" sampledSeconds="0.00" departed="0" arrived="0" entered="0" left="0" laneChangedFrom="0" laneChangedTo="0"/>
        <edge id="-123629182#1" sampledSeconds="0.00" departed="0" arrived="0" entered="0" left="0" laneChangedFrom="0" laneChangedTo="0"/>
        <edge id="-123629182#2" sampledSeconds="0.00" departed="0" arrived="0" entered="0" left="0" laneChangedFrom="0" laneChangedTo="0"/>
        <edge id="-123629182#3" sampledSeconds="0.00" departed="0" arrived="0" entered="0" left="0" laneChangedFrom="0" laneChangedTo="0"/>
        <edge id="-123629182#4" sampledSeconds="0.00" departed="0" arrived="0" entered="0" left="0" laneChangedFrom="0" laneChangedTo="0"/>
        <edge id="-123629208#0" sampledSeconds="0.00" departed="0" arrived="0" entered="0" left="0" laneChangedFrom="0" laneChangedTo="0"/>