<?xml version="1.0" encoding="UTF-8"?>

<!-- generated on 2025-09-21 07:13:52 by Eclipse SUMO GUI Version 1.24.0
<sumoConfiguration xmlns:xsi="http://www.w3.org/2001/XMLSchema-instance" xsi:noNamespaceSchemaLocation="http://sumo.dlr.de/xsd/sumoConfiguration.xsd">

    <input>
        <net-file value="../Banglore_Silk_Junction/osm.net.xml.gz"/>
        <route-files value="../Banglore_Silk_Junction/osm.routes.xml"/>
        <additional-files value="../Banglore_Silk_Junction/osm.poly.xml.gz,../Banglore_Silk_Junction/output.add.xml"/>
    </input>

    <output>
        <summary-output value="outputs/bangalore_after_ai_summary.xml"/>
        <tripinfo-output value="outputs/bangalore_after_ai_tripinfo.xml"/>
        <statistic-output value="../Banglore_Silk_Junction/stats.xml"/>
    </output>

    <processing>
        <ignore-route-errors value="true"/>
        <tls.actuated.jam-threshold value="30"/>
    </processing>

    <routing>
        <device.rerouting.adaptation-steps value="18"/>
        <device.rerouting.adaptation-interval value="10"/>
    </routing>

    <report>
        <verbose value="true"/>
        <duration-log.statistics value="true"/>
        <no-step-log value="true"/>
    </report>

    <traci_server>
        <remote-port value="8813"/>
    </traci_server>

    <gui_only>
        <gui-settings-file value="../Banglore_Silk_Junction/osm.view.xml"/>
        <start value="true"/>
    </gui_only>

</sumoConfiguration>
-->

<meandata xmlns:xsi="http://www.w3.org/2001/XMLSchema-instance" xsi:noNamespaceSchemaLocation="http://sumo.dlr.de/xsd/meandata_file.xsd">
    <interval begin="0.00" end="3600.00" id="wizard_example">
        <edge id="-1030669035" sampledSeconds="113.06" traveltime="6.48" overlapTraveltime="8.09" density="0.99" laneDensity="0.99" occupancy="0.44" waitingTime="1.00" timeLoss="62.12" speed="4.55" speedRelative="0.33" departed="13" arrived="2" entered="3" left="14" laneChangedFrom="0" laneChangedTo="0"/>
        <edge id="-1042112410" sampledSeconds="2469.76" traveltime="191.95" overlapTraveltime="130.92" density="133.33" laneDensity="133.33" occupancy="46.99" waitingTime="2396.32" timeLoss="2462.14" speed="0.04" speedRelative="0.00" departed="6" arrived="2" entered="29" left="31" laneChangedFrom="0" laneChangedTo="0" teleported="4"/>
        <edge id="-1063933802#0" sampledSeconds="10284.11" traveltime="213.42" overlapTraveltime="216.18" density="22.14" laneDensity="22.14" occupancy="11.03" waitingTime="9236.00" timeLoss="9793.11" speed="0.62" speedRelative="0.04" departed="3" arrived="3" entered="45" left="43" laneChangedFrom="0" laneChangedTo="0" teleported="4"/>
        <edge id="-1063933802#1" sampledSeconds="328.44" traveltime="7.02" overlapTraveltime="7.41" density="1.28" laneDensity="1.28" occupancy="0.59" waitingTime="0.00" timeLoss="79.67" speed="10.32" speedRelative="0.74" departed="10" arrived="0" entered="35" left="45" laneChangedFrom="0" laneChangedTo="0"/>
        <edge id="-1063933802#2" sampledSeconds="56.31" traveltime="3.83" overlapTraveltime="4.23" density="0.49" laneDensity="0.49" occupancy="0.22" waitingTime="0.00" timeLoss="21.19" speed="8.75" speedRelative="0.63" departed="5" arrived="0" entered="9" left="14" laneChangedFrom="0" laneChangedTo="0"/>
        <edge id="-1063933802#3" sampledSeconds="69.91" traveltime="7.35" overlapTraveltime="7.96" density="0.30" laneDensity="0.30" occupancy="0.14" waitingTime="0.00" timeLoss="23.28" speed="8.79" speedRelative="0.63" departed="3" arrived="0" entered="6" left="9" laneChangedFrom="0" laneChangedTo="0"/>
        <edge id="-1065415314" sampledSeconds="1219.46" traveltime="43.62" overlapTraveltime="80.83" density="4.48" laneDensity="4.48" occupancy="1.90" waitingTime="1029.00" timeLoss="1125.10" speed="1.00" speedRelative="0.07" departed="8" arrived="0" entered="8" left="14" laneChangedFrom="0" laneChangedTo="0"/>
        <edge id="-1066726717" sampledSeconds="0.00" departed="0" arrived="0" entered="0" left="0" laneChangedFrom="0" laneChangedTo="0"/>
        <edge id="-1074282737" sampledSeconds="0.00" departed="0" arrived="0" entered="0" left="0" laneChangedFrom="0" laneChangedTo="0"/>
        <edge id="-1074282738" sampledSeconds="0.00" departed="0" arrived="0" entered="0" left="0" laneChangedFrom="0" laneChangedTo="0"/>
        <edge id="-1087955058" sampledSeconds="0.00" departed="0" arrived="0" entered="0" left="0" laneChangedFrom="0" laneChangedTo="0"/>
        <edge id="-1090570621" sampledSeconds="0.00" departed="0" arrived="0" entered="0" left="0" laneChangedFrom="0" laneChangedTo="0"/>
        <edge id="-1090570622" sampledSeconds="0.00" departed="0" arrived="0" entered="0" left="0" laneChangedFrom="0" laneChangedTo="0"/>
        <edge id="-1090570624#0" sampledSeconds="0.00" departed="0" arrived="0" entered="0" left="0" laneChangedFrom="0" laneChangedTo="0"/>
        <edge id="-1090570625#0" sampledSeconds="0.00" departed="0" arrived="0" entered="0" left="0" laneChangedFrom="0" laneChangedTo="0"/>
        <edge id="-1090570625#1" sampledSeconds="0.00" departed="0" arrived="0" entered="0" left="0" laneChangedFrom="0" laneChangedTo="0"/>
        <edge id="-1090570626" sampledSeconds="0.00" departed="0" arrived="0" entered="0" left="0" laneChangedFrom="0" laneChangedTo="0"/>
        <edge id="-1101675581" sampledSeconds="0.00" departed="0" arrived="0" entered="0" left="0" laneChangedFrom="0" laneChangedTo="0"/>
        <edge id="-1101675582" sampledSeconds="0.00" departed="0" arrived="0" entered="0" left="0" laneChangedFrom="0" laneChangedTo="0"/>
        <edge id="-1101675583" sampledSeconds="873.45" traveltime="102.78" overlapTraveltime="109.13" density="15.53" laneDensity="15.53" occupancy="7.60" waitingTime="807.00" timeLoss="858.12" speed="0.19" speedRelative="0.01" departed="3" arrived="1" entered="6" left="8" laneChangedFrom="0" laneChangedTo="0" teleported="1"/>
        <edge id="-1101675584#0" sampledSeconds="0.00" departed="0" arrived="0" entered="0" left="0" laneChangedFrom="0" laneChangedTo="0"/>
        <edge id="-1101675584#1" sampledSeconds="0.00" departed="0" arrived="0" entered="0" left="0" laneChangedFrom="0" laneChangedTo="0"/>
        <edge id="-1101690250#0" sampledSeconds="0.00" departed="0" arrived="0" entered="0" left="0" laneChangedFrom="0" laneChangedTo="0"/>
        <edge id="-1101690250#1" sampledSeconds="0.00" departed="0" arrived="0" entered="0" left="0" laneChangedFrom="0" laneChangedTo="0"/>
        <edge id="-1101690250#2" sampledSeconds="0.00" departed="0" arrived="0" entered="0" left="0" laneChangedFrom="0" laneChangedTo="0"/>
        <edge id="-1101690250#3" sampledSeconds="0.00" departed="0" arrived="0" entered="0" left="0" laneChangedFrom="0" laneChangedTo="0"/>
        <edge id="-1101690251" sampledSeconds="0.00" departed="0" arrived="0" entered="0" left="0" laneChangedFrom="0" laneChangedTo="0"/>
        <edge id="-1101690252" sampledSeconds="0.00" departed="0" arrived="0" entered="0" left="0" laneChangedFrom="0" laneChangedTo="0"/>
        <edge id="-1101690254#0" sampledSeconds="0.00" departed="0" arrived="0" entered="0" left="0" laneChangedFrom="0" laneChangedTo="0"/>
        <edge id="-1101690254#2" sampledSeconds="0.00" departed="0" arrived="0" entered="0" left="0" laneChangedFrom="0" laneChangedTo="0"/>
        <edge id="-1101690289" sampledSeconds="0.00" departed="0" arrived="0" entered="0" left="0" laneChangedFrom="0" laneChangedTo="0"/>
        <edge id="-1101690290" sampledSeconds="460.99" traveltime="43.38" overlapTraveltime="45.25" density="2.91" laneDensity="2.91" occupancy="1.43" waitingTime="381.00" timeLoss="419.73" speed="1.08" speedRelative="0.08" departed="5" arrived="5" entered="6" left="6" laneChangedFrom="0" laneChangedTo="0" teleported="1"/>
        <edge id="-1101690293" sampledSeconds="0.00" departed="0" arrived="0" entered="0" left="0" laneChangedFrom="0" laneChangedTo="0"/>
        <edge id="-1101696116#0" sampledSeconds="0.00" departed="0" arrived="0" entered="0" left="0" laneChangedFrom="0" laneChangedTo="0"/>
        <edge id="-1101696116#1" sampledSeconds="0.00" departed="0" arrived="0" entered="0" left="0" laneChangedFrom="0" laneChangedTo="0"/>
        <edge id="-1101696117" sampledSeconds="0.00" departed="0" arrived="0" entered="0" left="0" laneChangedFrom="0" laneChangedTo="0"/>
        <edge id="-1101696118" sampledSeconds="0.00" departed="0" arrived="0" entered="0" left="0" laneChangedFrom="0" laneChangedTo="0"/>
        <edge id="-1102833440" sampledSeconds="3151.36" traveltime="340.96" overlapTraveltime="409.25" density="42.97" laneDensity="42.97" occupancy="20.93" waitingTime="3064.00" timeLoss="3135.45" speed="0.06" speedRelative="0.00" departed="5" arrived="0" entered="9" left="11" laneChangedFrom="0" laneChangedTo="0" teleported="4"/>
        <edge id="-1102833441" sampledSeconds="3698.80" traveltime="464.37" overlapTraveltime="507.07" density="41.03" laneDensity="41.03" occupancy="18.67" waitingTime="3599.00" timeLoss="3680.53" speed="0.06" speedRelative="0.00" departed="6" arrived="0" entered="5" left="7" laneChangedFrom="0" laneChangedTo="0" teleported="3"/>
        <edge id="-1102833442" sampledSeconds="3216.01" traveltime="401.96" overlapTraveltime="496.37" density="38.64" laneDensity="38.64" occupancy="18.77" waitingTime="3127.00" timeLoss="3202.05" speed="0.06" speedRelative="0.00" departed="8" arrived="0" entered="2" left="7" laneChangedFrom="0" laneChangedTo="0" teleported="4"/>
        <edge id="-1106333599#0" sampledSeconds="0.00" departed="0" arrived="0" entered="0" left="0" laneChangedFrom="0" laneChangedTo="0"/>
        <edge id="-1106333599#1" sampledSeconds="0.00" departed="0" arrived="0" entered="0" left="0" laneChangedFrom="0" laneChangedTo="0"/>
        <edge id="-1107102893" sampledSeconds="0.00" departed="0" arrived="0" entered="0" left="0" laneChangedFrom="0" laneChangedTo="0"/>
        <edge id="-1109597642" sampledSeconds="1263.08" traveltime="103.63" overlapTraveltime="106.63" density="10.10" laneDensity="10.10" occupancy="5.02" waitingTime="1177.00" timeLoss="1223.72" speed="0.37" speedRelative="0.03" departed="6" arrived="2" entered="7" left="11" laneChangedFrom="0" laneChangedTo="0" teleported="3"/>
        <edge id="-1109599638" sampledSeconds="4353.71" traveltime="201.83" overlapTraveltime="216.23" density="19.44" laneDensity="19.44" occupancy="9.55" waitingTime="4068.00" timeLoss="4250.78" speed="0.31" speedRelative="0.02" departed="9" arrived="1" entered="16" left="16" laneChangedFrom="0" laneChangedTo="0" teleported="2"/>
        <edge id="-1109599639" sampledSeconds="18.44" traveltime="4.27" overlapTraveltime="4.64" density="0.11" laneDensity="0.11" occupancy="0.05" waitingTime="0.00" timeLoss="4.42" speed="10.96" speedRelative="0.79" departed="0" arrived="4" entered="4" left="0" laneChangedFrom="0" laneChangedTo="0"/>
        <edge id="-1109599640" sampledSeconds="736.49" traveltime="0.39" overlapTraveltime="22.42" density="133.33" laneDensity="133.33" occupancy="20.26" waitingTime="685.00" timeLoss="720.61" speed="0.23" speedRelative="0.02" departed="5" arrived="0" entered="42" left="47" laneChangedFrom="0" laneChangedTo="0"/>
        <edge id="-1109599641" sampledSeconds="557.52" traveltime="13.11" overlapTraveltime="20.20" density="133.33" laneDensity="133.33" occupancy="15.41" waitingTime="523.00" timeLoss="545.50" speed="0.27" speedRelative="0.02" departed="3" arrived="1" entered="34" left="36" laneChangedFrom="0" laneChangedTo="0"/>
        <edge id="-1109599642" sampledSeconds="4861.01" traveltime="32.88" overlapTraveltime="33.99" density="104.43" laneDensity="104.43" occupancy="50.79" waitingTime="4253.00" timeLoss="4584.70" speed="0.53" speedRelative="0.04" departed="4" arrived="0" entered="196" left="198" laneChangedFrom="0" laneChangedTo="0" teleported="3"/>
        <edge id="-1109599644" sampledSeconds="968.90" traveltime="0.09" overlapTraveltime="9.67" density="133.33" laneDensity="133.33" occupancy="20.11" waitingTime="871.00" timeLoss="929.18" speed="0.54" speedRelative="0.04" departed="7" arrived="0" entered="119" left="124" laneChangedFrom="0" laneChangedTo="0"/>
        <edge id="-1109599645" sampledSeconds="10670.86" traveltime="369.02" overlapTraveltime="388.66" density="68.50" laneDensity="68.50" occupancy="32.99" waitingTime="10252.00" timeLoss="10565.17" speed="0.12" speedRelative="0.01" departed="8" arrived="0" entered="35" left="37" laneChangedFrom="0" laneChangedTo="0" teleported="4"/>
        <edge id="-1109599646" sampledSeconds="6298.05" traveltime="350.89" overlapTraveltime="365.70" density="43.21" laneDensity="43.21" occupancy="21.56" waitingTime="6012.00" timeLoss="6237.88" speed="0.12" speedRelative="0.01" departed="8" arrived="1" entered="15" left="17" laneChangedFrom="0" laneChangedTo="0" teleported="4"/>
        <edge id="-1109599647" sampledSeconds="1597.31" traveltime="18.31" overlapTraveltime="20.10" density="133.33" laneDensity="133.33" occupancy="18.32" waitingTime="1459.00" timeLoss="1556.74" speed="0.34" speedRelative="0.02" departed="2" arrived="2" entered="107" left="106" laneChangedFrom="0" laneChangedTo="0" teleported="4"/>
        <edge id="-1109599648" sampledSeconds="28.70" traveltime="0.04" overlapTraveltime="1.11" density="39.86" laneDensity="39.86" occupancy="0.76" waitingTime="0.00" timeLoss="17.68" speed="4.67" speedRelative="0.34" departed="5" arrived="0" entered="29" left="34" laneChangedFrom="0" laneChangedTo="0"/>
        <edge id="-1109599649" sampledSeconds="1118.33" traveltime="53.45" overlapTraveltime="56.85" density="133.33" laneDensity="133.33" occupancy="11.60" waitingTime="1091.00" timeLoss="1107.70" speed="0.11" speedRelative="0.01" departed="7" arrived="0" entered="20" left="26" laneChangedFrom="0" laneChangedTo="0" teleported="1"/>
        <edge id="-1109898611" sampledSeconds="0.00" departed="0" arrived="0" entered="0" left="0" laneChangedFrom="0" laneChangedTo="0"/>
        <edge id="-1109899901" sampledSeconds="27.14" traveltime="5.69" overlapTraveltime="6.44" density="0.28" laneDensity="0.28" occupancy="0.13" waitingTime="0.00" timeLoss="15.09" speed="5.02" speedRelative="0.36" departed="5" arrived="0" entered="0" left="5" laneChangedFrom="0" laneChangedTo="0"/>
        <edge id="-1109900439" sampledSeconds="0.00" departed="0" arrived="0" entered="0" left="0" laneChangedFrom="0" laneChangedTo="0"/>
        <edge id="-1109900833" sampledSeconds="714.07" traveltime="104.82" overlapTraveltime="105.90" density="5.73" laneDensity="5.73" occupancy="2.83" waitingTime="657.00" timeLoss="693.82" speed="0.37" speedRelative="0.03" departed="2" arrived="0" entered="5" left="7" laneChangedFrom="0" laneChangedTo="0"/>
        <edge id="-1109900834" sampledSeconds="1657.18" traveltime="250.80" overlapTraveltime="257.36" density="11.37" laneDensity="11.37" occupancy="5.63" waitingTime="1574.00" timeLoss="1635.05" speed="0.18" speedRelative="0.01" departed="4" arrived="0" entered="3" left="6" laneChangedFrom="0" laneChangedTo="0"/>
        <edge id="-1109900835" sampledSeconds="1331.59" traveltime="186.90" overlapTraveltime="196.66" density="13.22" laneDensity="13.22" occupancy="6.59" waitingTime="1269.00" timeLoss="1313.20" speed="0.17" speedRelative="0.01" departed="6" arrived="0" entered="3" left="6" laneChangedFrom="0" laneChangedTo="0" teleported="1"/>
        <edge id="-1109908411" sampledSeconds="0.00" departed="0" arrived="0" entered="0" left="0" laneChangedFrom="0" laneChangedTo="0"/>
        <edge id="-1110193765" sampledSeconds="35.86" traveltime="4.32" overlapTraveltime="4.93" density="0.53" laneDensity="0.53" occupancy="0.24" waitingTime="0.00" timeLoss="19.54" speed="4.81" speedRelative="0.35" departed="8" arrived="0" entered="1" left="9" laneChangedFrom="0" laneChangedTo="0"/>
        <edge id="-1110221362" sampledSeconds="7067.72" traveltime="340.56" overlapTraveltime="349.53" density="30.47" laneDensity="30.47" occupancy="15.12" waitingTime="6716.00" timeLoss="6961.72" speed="0.20" speedRelative="0.01" departed="6" arrived="0" entered="32" left="29" laneChangedFrom="0" laneChangedTo="0" teleported="4"/>
        <edge id="-1110221663" sampledSeconds="2107.85" traveltime="251.02" overlapTraveltime="262.52" density="8.23" laneDensity="8.23" occupancy="4.11" waitingTime="2003.00" timeLoss="2059.63" speed="0.29" speedRelative="0.02" departed="10" arrived="0" entered="0" left="6" laneChangedFrom="0" laneChangedTo="0" teleported="3"/>
        <edge id="-1110221920" sampledSeconds="193.62" traveltime="9.68" overlapTraveltime="12.79" density="3.46" laneDensity="3.46" occupancy="1.40" waitingTime="132.00" timeLoss="168.25" speed="1.61" speedRelative="0.12" departed="10" arrived="0" entered="8" left="17" laneChangedFrom="0" laneChangedTo="0"/>
        <edge id="-1118275525" sampledSeconds="1111.22" traveltime="16.78" overlapTraveltime="16.41" density="133.33" laneDensity="133.33" occupancy="29.61" waitingTime="975.00" timeLoss="1058.18" speed="0.43" speedRelative="0.03" departed="6" arrived="2" entered="77" left="81" laneChangedFrom="0" laneChangedTo="0"/>
        <edge id="-1124477406" sampledSeconds="6.92" traveltime="7.12" overlapTraveltime="7.76" density="0.05" laneDensity="0.05" occupancy="0.02" waitingTime="0.00" timeLoss="3.44" speed="6.07" speedRelative="0.44" departed="1" arrived="0" entered="0" left="1" laneChangedFrom="0" laneChangedTo="0"/>
        <edge id="-1150869431#1" sampledSeconds="15650.65" traveltime="263.87" overlapTraveltime="268.05" density="85.38" laneDensity="85.38" occupancy="42.53" waitingTime="14857.00" timeLoss="15466.37" speed="0.21" speedRelative="0.01" departed="4" arrived="1" entered="68" left="65" laneChangedFrom="0" laneChangedTo="0" teleported="5"/>
        <edge id="-1150869431#2" sampledSeconds="7864.26" traveltime="142.88" overlapTraveltime="145.26" density="70.83" laneDensity="70.83" occupancy="35.24" waitingTime="7521.00" timeLoss="7774.87" speed="0.25" speedRelative="0.01" departed="3" arrived="0" entered="60" left="59" laneChangedFrom="0" laneChangedTo="0" teleported="5"/>
        <edge id="-1165663724" sampledSeconds="10248.64" traveltime="351.77" overlapTraveltime="360.86" density="47.38" laneDensity="47.38" occupancy="23.64" waitingTime="9763.00" timeLoss="10107.22" speed="0.18" speedRelative="0.01" departed="5" arrived="3" entered="27" left="23" laneChangedFrom="0" laneChangedTo="0" teleported="5"/>
        <edge id="-1182440755" sampledSeconds="1206.36" traveltime="155.34" overlapTraveltime="157.47" density="2.31" laneDensity="2.31" occupancy="1.15" waitingTime="1066.00" timeLoss="1120.14" speed="0.95" speedRelative="0.07" departed="8" arrived="0" entered="0" left="7" laneChangedFrom="0" laneChangedTo="0" teleported="1"/>
        <edge id="-1185209421#0" sampledSeconds="16534.46" traveltime="246.85" overlapTraveltime="254.61" density="104.24" laneDensity="104.24" occupancy="51.07" waitingTime="15422.00" timeLoss="16289.82" speed="0.19" speedRelative="0.01" departed="5" arrived="0" entered="75" left="72" laneChangedFrom="0" laneChangedTo="0" teleported="6"/>
        <edge id="-1185209421#2" sampledSeconds="17629.29" traveltime="317.07" overlapTraveltime="327.24" density="95.65" laneDensity="95.65" occupancy="47.26" waitingTime="16657.00" timeLoss="17402.33" speed="0.17" speedRelative="0.01" departed="4" arrived="0" entered="60" left="57" laneChangedFrom="0" laneChangedTo="0" teleported="2"/>
        <edge id="-1185209421#3" sampledSeconds="1912.36" traveltime="33.23" overlapTraveltime="33.70" density="47.43" laneDensity="47.43" occupancy="23.13" waitingTime="1746.00" timeLoss="1838.93" speed="0.48" speedRelative="0.03" departed="8" arrived="1" entered="58" left="64" laneChangedFrom="0" laneChangedTo="0" teleported="2"/>
        <edge id="-1185209422#0" sampledSeconds="16145.10" traveltime="97.95" overlapTraveltime="101.16" density="95.81" laneDensity="95.81" occupancy="46.79" waitingTime="14622.00" timeLoss="15745.89" speed="0.51" speedRelative="0.02" departed="4" arrived="4" entered="166" left="160" laneChangedFrom="0" laneChangedTo="0"/>
        <edge id="-1185209422#1" sampledSeconds="4617.02" traveltime="28.38" overlapTraveltime="28.90" density="101.87" laneDensity="101.87" occupancy="45.89" waitingTime="4284.00" timeLoss="4489.97" speed="0.61" speedRelative="0.03" departed="3" arrived="1" entered="167" left="166" laneChangedFrom="0" laneChangedTo="0"/>
        <edge id="-1185209422#2" sampledSeconds="16492.20" traveltime="100.23" overlapTraveltime="100.86" density="64.48" laneDensity="64.48" occupancy="31.38" waitingTime="14961.00" timeLoss="15928.52" speed="0.75" speedRelative="0.03" departed="1" arrived="1" entered="178" left="167" laneChangedFrom="0" laneChangedTo="0"/>
        <edge id="-1185467340" sampledSeconds="3397.18" traveltime="105.47" overlapTraveltime="157.33" density="16.82" laneDensity="16.82" occupancy="7.16" waitingTime="2740.00" timeLoss="2953.59" speed="0.39" speedRelative="0.14" departed="4" arrived="2" entered="20" left="18" laneChangedFrom="0" laneChangedTo="0"/>
        <edge id="-1185467975" sampledSeconds="0.00" departed="0" arrived="0" entered="0" left="0" laneChangedFrom="0" laneChangedTo="0"/>
        <edge id="-1185468746" sampledSeconds="89.29" traveltime="2.44" overlapTraveltime="3.08" density="2.08" laneDensity="2.08" occupancy="0.74" waitingTime="0.00" timeLoss="53.72" speed="5.50" speedRelative="0.40" departed="6" arrived="4" entered="25" left="27" laneChangedFrom="0" laneChangedTo="0"/>
        <edge id="-1185469198" sampledSeconds="0.00" departed="0" arrived="0" entered="0" left="0" laneChangedFrom="0" laneChangedTo="0"/>
        <edge id="-1185875477" sampledSeconds="0.00" departed="0" arrived="0" entered="0" left="0" laneChangedFrom="0" laneChangedTo="0"/>
        <edge id="-1185876385" sampledSeconds="13.37" traveltime="6.33" overlapTraveltime="6.69" density="0.05" laneDensity="0.05" occupancy="0.02" waitingTime="0.00" timeLoss="2.81" speed="11.54" speedRelative="0.83" departed="0" arrived="2" entered="2" left="0" laneChangedFrom="0" laneChangedTo="0"/>
        <edge id="-1185877001" sampledSeconds="627.65" traveltime="79.69" overlapTraveltime="80.14" density="12.62" laneDensity="12.62" occupancy="6.24" waitingTime="583.00" timeLoss="612.08" speed="0.23" speedRelative="0.02" departed="6" arrived="0" entered="4" left="9" laneChangedFrom="0" laneChangedTo="0" teleported="1"/>
        <edge id="-1213264717" sampledSeconds="422.89" traveltime="82.97" overlapTraveltime="86.04" density="3.60" laneDensity="3.60" occupancy="1.79" waitingTime="383.00" timeLoss="409.05" speed="0.44" speedRelative="0.03" departed="6" arrived="0" entered="0" left="5" laneChangedFrom="0" laneChangedTo="0" teleported="1"/>
        <edge id="-1215278306#0" sampledSeconds="82.52" traveltime="4.42" overlapTraveltime="5.86" density="0.99" laneDensity="0.99" occupancy="0.43" waitingTime="1.00" timeLoss="43.78" speed="4.79" speedRelative="0.35" departed="10" arrived="2" entered="6" left="14" laneChangedFrom="0" laneChangedTo="0"/>
        <edge id="-1215278306#1" sampledSeconds="1941.21" traveltime="35.81" overlapTraveltime="36.57" density="30.92" laneDensity="30.92" occupancy="15.09" waitingTime="1707.00" timeLoss="1837.07" speed="0.61" speedRelative="0.04" departed="8" arrived="5" entered="54" left="55" laneChangedFrom="0" laneChangedTo="0"/>
        <edge id="-1215337274#1" sampledSeconds="49.02" traveltime="0.07" overlapTraveltime="1.20" density="68.09" laneDensity="68.09" occupancy="1.33" waitingTime="1.00" timeLoss="24.87" speed="4.32" speedRelative="0.31" departed="14" arrived="3" entered="29" left="40" laneChangedFrom="0" laneChangedTo="0"/>
        <edge id="-1215337274#2" sampledSeconds="276.85" traveltime="17.08" overlapTraveltime="17.77" density="1.31" laneDensity="1.31" occupancy="0.62" waitingTime="144.00" timeLoss="198.69" speed="3.59" speedRelative="0.26" departed="5" arrived="1" entered="11" left="15" laneChangedFrom="0" laneChangedTo="0"/>
        <edge id="-1215337274#3" sampledSeconds="120.83" traveltime="8.33" overlapTraveltime="9.93" density="0.57" laneDensity="0.57" occupancy="0.26" waitingTime="0.00" timeLoss="57.71" speed="6.44" speedRelative="0.46" departed="10" arrived="2" entered="3" left="11" laneChangedFrom="0" laneChangedTo="0"/>
        <edge id="-1227539673#0" sampledSeconds="4462.18" traveltime="169.66" overlapTraveltime="202.58" density="84.90" laneDensity="84.90" occupancy="39.43" waitingTime="4339.00" timeLoss="4420.93" speed="0.10" speedRelative="0.01" departed="6" arrived="2" entered="22" left="26" laneChangedFrom="0" laneChangedTo="0" teleported="4"/>
        <edge id="-1227539673#1" sampledSeconds="10961.96" traveltime="391.25" overlapTraveltime="400.96" density="57.39" laneDensity="57.39" occupancy="28.21" waitingTime="10471.00" timeLoss="10841.79" speed="0.14" speedRelative="0.01" departed="9" arrived="2" entered="21" left="24" laneChangedFrom="0" laneChangedTo="0" teleported="2"/>
        <edge id="-1227709810" sampledSeconds="0.00" departed="0" arrived="0" entered="0" left="0" laneChangedFrom="0" laneChangedTo="0"/>
        <edge id="-1227710024" sampledSeconds="1394.01" traveltime="245.56" overlapTraveltime="260.73" density="10.48" laneDensity="10.48" occupancy="5.23" waitingTime="1337.00" timeLoss="1376.45" speed="0.16" speedRelative="0.01" departed="8" arrived="0" entered="0" left="4" laneChangedFrom="0" laneChangedTo="0" teleported="1"/>
        <edge id="-1227710144" sampledSeconds="0.00" departed="0" arrived="0" entered="0" left="0" laneChangedFrom="0" laneChangedTo="0"/>
        <edge id="-1227710722" sampledSeconds="0.00" departed="0" arrived="0" entered="0" left="0" laneChangedFrom="0" laneChangedTo="0"/>
        <edge id="-1227711130" sampledSeconds="0.00" departed="0" arrived="0" entered="0" left="0" laneChangedFrom="0" laneChangedTo="0"/>
        <edge id="-1227711710" sampledSeconds="0.00" departed="0" arrived="0" entered="0" left="0" laneChangedFrom="0" laneChangedTo="0"/>
        <edge id="-123629031#0" sampledSeconds="6.10" traveltime="2.08" overlapTraveltime="3.80" density="0.21" laneDensity="0.21" occupancy="0.07" waitingTime="0.00" timeLoss="3.22" speed="3.40" speedRelative="0.24" departed="1" arrived="0" entered="1" left="2" laneChangedFrom="0" laneChangedTo="0"/>
        <edge id="-123629031#1" sampledSeconds="16.75" traveltime="15.92" overlapTraveltime="16.75" density="0.02" laneDensity="0.02" occupancy="0.01" waitingTime="0.00" timeLoss="1.58" speed="13.86" speedRelative="1.00" departed="0" arrived="0" entered="1" left="1" laneChangedFrom="0" laneChangedTo="0"/>
        <edge id="-123629036#0" sampledSeconds="12.49" traveltime="1.76" overlapTraveltime="2.50" density="0.30" laneDensity="0.30" occupancy="0.11" waitingTime="0.00" timeLoss="5.16" speed="6.57" speedRelative="0.47" departed="0" arrived="0" entered="5" left="5" laneChangedFrom="0" laneChangedTo="0"/>
        <edge id="-123629036#1" sampledSeconds="18.12" traveltime="2.54" overlapTraveltime="3.25" density="0.28" laneDensity="0.28" occupancy="0.12" waitingTime="0.00" timeLoss="9.46" speed="7.02" speedRelative="0.51" departed="1" arrived="1" entered="5" left="5" laneChangedFrom="0" laneChangedTo="0"/>
        <edge id="-123629036#2" sampledSeconds="8.87" traveltime="1.85" overlapTraveltime="2.40" density="0.20" laneDensity="0.20" occupancy="0.08" waitingTime="0.00" timeLoss="4.59" speed="7.13" speedRelative="0.51" departed="1" arrived="0" entered="3" left="4" laneChangedFrom="0" laneChangedTo="0"/>
        <edge id="-123629036#3" sampledSeconds="9.57" traveltime="2.85" overlapTraveltime="3.56" density="0.17" laneDensity="0.17" occupancy="0.07" waitingTime="0.00" timeLoss="5.69" speed="5.84" speedRelative="0.42" departed="1" arrived="1" entered="2" left="2" laneChangedFrom="0" laneChangedTo="0"/>
        <edge id="-123629047" sampledSeconds="15.39" traveltime="15.27" overlapTraveltime="15.68" density="0.02" laneDensity="0.02" occupancy="0.01" waitingTime="0.00" timeLoss="0.93" speed="12.10" speedRelative="0.87" departed="0" arrived="1" entered="1" left="0" laneChangedFrom="0" laneChangedTo="0"/>
        <edge id="-123629099#0" sampledSeconds="19.32" traveltime="9.14" overlapTraveltime="9.93" density="0.06" laneDensity="0.06" occupancy="0.03" waitingTime="0.00" timeLoss="6.10" speed="9.54" speedRelative="0.69" departed="1" arrived="0" entered="1" left="2" laneChangedFrom="0" laneChangedTo="0"/>
        <edge id="-123629099#1" sampledSeconds="38.92" traveltime="5.59" overlapTraveltime="6.49" density="0.17" laneDensity="0.17" occupancy="0.08" waitingTime="0.00" timeLoss="5.54" speed="10.30" speedRelative="0.74" departed="0" arrived="1" entered="6" left="5" laneChangedFrom="0" laneChangedTo="0"/>
        <edge id="-123629099#2" sampledSeconds="11.21" traveltime="1.28" overlapTraveltime="1.87" density="0.29" laneDensity="0.29" occupancy="0.10" waitingTime="0.00" timeLoss="4.26" speed="8.34" speedRelative="0.60" departed="0" arrived="0" entered="6" left="6" laneChangedFrom="0" laneChangedTo="0"/>
        <edge id="-123629099#3" sampledSeconds="17.28" traveltime="3.01" overlapTraveltime="3.73" density="0.21" laneDensity="0.21" occupancy="0.09" waitingTime="0.00" timeLoss="6.82" speed="7.35" speedRelative="0.53" departed="2" arrived="0" entered="3" left="5" laneChangedFrom="0" laneChangedTo="0"/>
        <edge id="-123629137#0" sampledSeconds="5.41" traveltime="5.30" overlapTraveltime="6.80" density="0.08" laneDensity="0.08" occupancy="0.03" waitingTime="0.00" timeLoss="2.97" speed="3.68" speedRelative="0.26" departed="1" arrived="0" entered="0" left="1" laneChangedFrom="0" laneChangedTo="0"/>
        <edge id="-123629137#1" sampledSeconds="8.63" traveltime="7.05" overlapTraveltime="8.63" density="0.03" laneDensity="0.03" occupancy="0.01" waitingTime="0.00" timeLoss="1.58" speed="9.64" speedRelative="0.69" departed="0" arrived="0" entered="1" left="1" laneChangedFrom="0" laneChangedTo="0"/>