<?xml version="1.0" encoding="UTF-8"?>

<!-- generated on 2025-09-21 00:47:20 by Eclipse SUMO GUI Version 1.24.0
<sumoConfiguration xmlns:xsi="http://www.w3.org/2001/XMLSchema-instance" xsi:noNamespaceSchemaLocation="http://sumo.dlr.de/xsd/sumoConfiguration.xsd">

    <input>
        <net-file value="C:\Users\sujit\Desktop\SIH25\smart-traffic-system\Banglore_Silk_Junction\osm.net.xml.gz"/>
        <route-files value="C:\Users\sujit\Desktop\SIH25\smart-traffic-system\Banglore_Silk_Junction\osm.routes.xml"/>
        <additional-files value="C:\Users\sujit\Desktop\SIH25\smart-traffic-system\Banglore_Silk_Junction\osm.poly.xml.gz,C:\Users\sujit\Desktop\SIH25\smart-traffic-system\Banglore_Silk_Junction\output.add.xml"/>
    </input>

    <output>
        <tripinfo-output value="C:\Users\sujit\Desktop\SIH25\smart-traffic-system\Banglore_Silk_Junction\tripinfos.xml"/>
        <statistic-output value="C:\Users\sujit\Desktop\SIH25\smart-traffic-system\Banglore_Silk_Junction\stats.xml"/>
    </output>

    <processing>
        <ignore-route-errors value="true"/>
        <tls.actuated.jam-threshold value="30"/>
    </processing>

    <routing>
        <device.rerouting.adaptation-steps value="18"/>
        <device.rerouting.adaptation-interval value="10"/>
    </routing>

    <report>
        <verbose value="true"/>
        <duration-log.statistics value="true"/>
        <no-step-log value="true"/>
    </report>

    <gui_only>
        <gui-settings-file value="C:\Users\sujit\Desktop\SIH25\smart-traffic-system\Banglore_Silk_Junction\osm.view.xml"/>
    </gui_only>

</sumoConfiguration>
-->

<tripinfos xmlns:xsi="http://www.w3.org/2001/XMLSchema-instance" xsi:noNamespaceSchemaLocation="http://sumo.dlr.de/xsd/tripinfo_file.xsd">
    <tripinfo id="22" depart="11.00" departLane="243553548#1_0" departPos="5.10" departSpeed="0.00" departDelay="0.00" arrival="51.00" arrivalLane="229976708#2_0" arrivalPos="37.19" arrivalSpeed="13.86" duration="40.00" routeLength="421.15" waitingTime="0.00" waitingCount="0" stopTime="0.00" timeLoss="15.87" rerouteNo="1" devices="tripinfo_22 routing_22" vType="DEFAULT_VEHTYPE" speedFactor="0.97" vaporized=""/>
    <tripinfo id="4" depart="2.00" departLane="-1110221920_0" departPos="5.10" departSpeed="0.00" departDelay="0.00" arrival="53.00" arrivalLane="-27994446#4_0" arrivalPos="45.15" arrivalSpeed="14.29" duration="51.00" routeLength="575.22" waitingTime="0.00" waitingCount="0" stopTime="0.00" timeLoss="12.17" rerouteNo="1" devices="tripinfo_4 routing_4" vType="DEFAULT_VEHTYPE" speedFactor="1.03" vaporized=""/>
    <tripinfo id="30" depart="15.00" departLane="-27994464#0_0" departPos="5.10" departSpeed="0.00" departDelay="0.00" arrival="61.00" arrivalLane="694335186#1_0" arrivalPos="27.70" arrivalSpeed="14.34" duration="46.00" routeLength="603.43" waitingTime="0.00" waitingCount="0" stopTime="0.00" timeLoss="15.85" rerouteNo="1" devices="tripinfo_30 routing_30" vType="DEFAULT_VEHTYPE" speedFactor="1.18" vaporized=""/>
    <tripinfo id="70" depart="35.00" departLane="-27994589#1_0" departPos="5.10" departSpeed="0.00" departDelay="0.00" arrival="63.00" arrivalLane="-243896990#6_0" arrivalPos="15.81" arrivalSpeed="9.35" duration="28.00" routeLength="214.25" waitingTime="0.00" waitingCount="0" stopTime="0.00" timeLoss="10.77" rerouteNo="1" devices="tripinfo_70 routing_70" vType="DEFAULT_VEHTYPE" speedFactor="1.02" vaporized=""/>
    <tripinfo id="34" depart="17.00" departLane="-310665112#2_0" departPos="5.10" departSpeed="0.00" departDelay="0.00" arrival="65.00" arrivalLane="-290639912#0_0" arrivalPos="27.16" arrivalSpeed="10.07" duration="48.00" routeLength="432.13" waitingTime="0.00" waitingCount="0" stopTime="0.00" timeLoss="17.31" rerouteNo="1" devices="tripinfo_34 routing_34" vType="DEFAULT_VEHTYPE" speedFactor="0.99" vaporized=""/>
    <tripinfo id="44" depart="22.00" departLane="40696219#1_0" departPos="5.10" departSpeed="0.00" departDelay="0.00" arrival="66.00" arrivalLane="-310665594#1_0" arrivalPos="45.30" arrivalSpeed="13.34" duration="44.00" routeLength="577.31" waitingTime="0.00" waitingCount="0" stopTime="0.00" timeLoss="14.08" rerouteNo="1" devices="tripinfo_44 routing_44" vType="DEFAULT_VEHTYPE" speedFactor="1.04" vaporized=""/>
    <tripinfo id="46" depart="23.00" departLane="59482012#1_0" departPos="5.10" departSpeed="0.00" departDelay="0.00" arrival="77.00" arrivalLane="491889864#1_0" arrivalPos="41.96" arrivalSpeed="13.37" duration="54.00" routeLength="455.98" waitingTime="1.00" waitingCount="1" stopTime="0.00" timeLoss="20.50" rerouteNo="1" devices="tripinfo_46 routing_46" vType="DEFAULT_VEHTYPE" speedFactor="1.00" vaporized=""/>
    <tripinfo id="36" depart="18.00" departLane="-694335198_0" departPos="5.10" departSpeed="0.00" departDelay="0.00" arrival="78.00" arrivalLane="-28120427#7_0" arrivalPos="43.32" arrivalSpeed="13.03" duration="60.00" routeLength="718.71" waitingTime="0.00" waitingCount="0" stopTime="0.00" timeLoss="10.88" rerouteNo="1" devices="tripinfo_36 routing_36" vType="DEFAULT_VEHTYPE" speedFactor="0.97" vaporized=""/>
    <tripinfo id="84" depart="42.00" departLane="995122863_0" departPos="5.10" departSpeed="0.00" departDelay="0.00" arrival="79.00" arrivalLane="40696199#5_0" arrivalPos="28.80" arrivalSpeed="12.06" duration="37.00" routeLength="320.11" waitingTime="0.00" waitingCount="0" stopTime="0.00" timeLoss="15.13" rerouteNo="1" devices="tripinfo_84 routing_84" vType="DEFAULT_VEHTYPE" speedFactor="1.15" vaporized=""/>
    <tripinfo id="12" depart="6.00" departLane="32267022#1_0" departPos="5.10" departSpeed="0.00" departDelay="0.00" arrival="83.00" arrivalLane="28120427#1_0" arrivalPos="22.35" arrivalSpeed="10.73" duration="77.00" routeLength="764.82" waitingTime="7.00" waitingCount="1" stopTime="0.00" timeLoss="33.70" rerouteNo="1" devices="tripinfo_12 routing_12" vType="DEFAULT_VEHTYPE" speedFactor="1.05" vaporized=""/>
    <tripinfo id="2" depart="1.00" departLane="491889865#1_0" departPos="5.10" departSpeed="0.00" departDelay="0.00" arrival="85.00" arrivalLane="-147575130#0_0" arrivalPos="18.30" arrivalSpeed="11.67" duration="84.00" routeLength="925.16" waitingTime="1.00" waitingCount="1" stopTime="0.00" timeLoss="24.71" rerouteNo="1" devices="tripinfo_2 routing_2" vType="DEFAULT_VEHTYPE" speedFactor="1.01" vaporized=""/>
    <tripinfo id="38" depart="19.00" departLane="310665116#0_0" departPos="5.10" departSpeed="0.00" departDelay="0.00" arrival="92.00" arrivalLane="-995122863_0" arrivalPos="19.78" arrivalSpeed="11.36" duration="73.00" routeLength="771.73" waitingTime="0.00" waitingCount="0" stopTime="0.00" timeLoss="25.45" rerouteNo="1" devices="tripinfo_38 routing_38" vType="DEFAULT_VEHTYPE" speedFactor="1.10" vaporized=""/>
    <tripinfo id="56" depart="28.00" departLane="28120450_0" departPos="5.10" departSpeed="0.00" departDelay="0.00" arrival="98.00" arrivalLane="-243896990#13_0" arrivalPos="22.73" arrivalSpeed="9.59" duration="70.00" routeLength="588.63" waitingTime="0.00" waitingCount="0" stopTime="0.00" timeLoss="20.98" rerouteNo="1" devices="tripinfo_56 routing_56" vType="DEFAULT_VEHTYPE" speedFactor="0.90" vaporized=""/>
    <tripinfo id="8" depart="4.00" departLane="322022988#9_0" departPos="5.10" departSpeed="0.00" departDelay="0.00" arrival="100.00" arrivalLane="27936034#1_0" arrivalPos="47.92" arrivalSpeed="12.11" duration="96.00" routeLength="1170.01" waitingTime="0.00" waitingCount="0" stopTime="0.00" timeLoss="18.98" rerouteNo="1" devices="tripinfo_8 routing_8" vType="DEFAULT_VEHTYPE" speedFactor="0.94" vaporized=""/>
    <tripinfo id="102" depart="51.00" departLane="-696064754_0" departPos="5.10" departSpeed="0.00" departDelay="0.00" arrival="102.00" arrivalLane="147575130#1_0" arrivalPos="9.07" arrivalSpeed="11.65" duration="51.00" routeLength="432.38" waitingTime="2.00" waitingCount="1" stopTime="0.00" timeLoss="19.37" rerouteNo="1" devices="tripinfo_102 routing_102" vType="DEFAULT_VEHTYPE" speedFactor="0.97" vaporized=""/>
    <tripinfo id="112" depart="56.00" departLane="-660092340_0" departPos="5.10" departSpeed="0.00" departDelay="0.00" arrival="102.00" arrivalLane="-27934975#0_0" arrivalPos="16.76" arrivalSpeed="11.29" duration="46.00" routeLength="443.52" waitingTime="0.00" waitingCount="0" stopTime="0.00" timeLoss="14.27" rerouteNo="1" devices="tripinfo_112 routing_112" vType="DEFAULT_VEHTYPE" speedFactor="1.10" vaporized=""/>
    <tripinfo id="134" depart="67.00" departLane="-27934861#4_0" departPos="5.10" departSpeed="0.00" departDelay="0.00" arrival="104.00" arrivalLane="678335364#3_0" arrivalPos="43.86" arrivalSpeed="27.05" duration="37.00" routeLength="494.93" waitingTime="0.00" waitingCount="0" stopTime="0.00" timeLoss="11.86" rerouteNo="1" devices="tripinfo_134 routing_134" vType="DEFAULT_VEHTYPE" speedFactor="1.23" vaporized=""/>
    <tripinfo id="168" depart="84.00" departLane="-38098067#2_0" departPos="5.10" departSpeed="0.00" departDelay="0.00" arrival="111.00" arrivalLane="133647781#4_0" arrivalPos="18.50" arrivalSpeed="12.99" duration="27.00" routeLength="247.04" waitingTime="0.00" waitingCount="0" stopTime="0.00" timeLoss="7.39" rerouteNo="1" devices="tripinfo_168 routing_168" vType="DEFAULT_VEHTYPE" speedFactor="0.98" vaporized=""/>
    <tripinfo id="130" depart="65.00" departLane="-40693535#0_0" departPos="5.10" departSpeed="0.00" departDelay="0.00" arrival="112.00" arrivalLane="59482082#1_0" arrivalPos="35.73" arrivalSpeed="14.33" duration="47.00" routeLength="586.42" waitingTime="0.00" waitingCount="0" stopTime="0.00" timeLoss="16.08" rerouteNo="1" devices="tripinfo_130 routing_130" vType="DEFAULT_VEHTYPE" speedFactor="1.03" vaporized=""/>
    <tripinfo id="18" depart="9.00" departLane="-164040895#0_0" departPos="5.10" departSpeed="0.00" departDelay="0.00" arrival="113.00" arrivalLane="-32267053#2_0" arrivalPos="3.35" arrivalSpeed="11.79" duration="104.00" routeLength="1034.81" waitingTime="0.00" waitingCount="0" stopTime="0.00" timeLoss="24.23" rerouteNo="1" devices="tripinfo_18 routing_18" vType="DEFAULT_VEHTYPE" speedFactor="0.94" vaporized=""/>
    <tripinfo id="96" depart="48.00" departLane="1185876385_0" departPos="5.10" departSpeed="0.00" departDelay="0.00" arrival="115.00" arrivalLane="40696212#1_0" arrivalPos="79.23" arrivalSpeed="13.75" duration="67.00" routeLength="738.77" waitingTime="0.00" waitingCount="0" stopTime="0.00" timeLoss="15.69" rerouteNo="1" devices="tripinfo_96 routing_96" vType="DEFAULT_VEHTYPE" speedFactor="1.01" vaporized=""/>
    <tripinfo id="0" depart="0.00" departLane="237089962#1_0" departPos="5.10" departSpeed="0.00" departDelay="0.00" arrival="119.00" arrivalLane="-1185209422#0_0" arrivalPos="46.81" arrivalSpeed="22.09" duration="119.00" routeLength="1404.32" waitingTime="14.00" waitingCount="1" stopTime="0.00" timeLoss="48.57" rerouteNo="1" devices="tripinfo_0 routing_0" vType="DEFAULT_VEHTYPE" speedFactor="1.06" vaporized=""/>
    <tripinfo id="82" depart="41.00" departLane="-28120461#2_0" departPos="5.10" departSpeed="0.00" departDelay="0.00" arrival="122.00" arrivalLane="660358967#1_0" arrivalPos="3.26" arrivalSpeed="7.30" duration="81.00" routeLength="809.86" waitingTime="4.00" waitingCount="2" stopTime="0.00" timeLoss="26.91" rerouteNo="1" devices="tripinfo_82 routing_82" vType="DEFAULT_VEHTYPE" speedFactor="1.02" vaporized=""/>
    <tripinfo id="94" depart="47.00" departLane="694563704_0" departPos="5.10" departSpeed="0.00" departDelay="0.00" arrival="123.00" arrivalLane="1424147361_0" arrivalPos="19.44" arrivalSpeed="12.18" duration="76.00" routeLength="773.52" waitingTime="0.00" waitingCount="0" stopTime="0.00" timeLoss="22.34" rerouteNo="1" devices="tripinfo_94 routing_94" vType="DEFAULT_VEHTYPE" speedFactor="1.09" vaporized=""/>
    <tripinfo id="180" depart="90.00" departLane="-695251944#1_0" departPos="5.10" departSpeed="0.00" departDelay="0.00" arrival="123.00" arrivalLane="243553546#1_0" arrivalPos="37.43" arrivalSpeed="14.15" duration="33.00" routeLength="321.42" waitingTime="0.00" waitingCount="0" stopTime="0.00" timeLoss="9.91" rerouteNo="1" devices="tripinfo_180 routing_180" vType="DEFAULT_VEHTYPE" speedFactor="1.10" vaporized=""/>
    <tripinfo id="6" depart="3.00" departLane="-28103474#3_0" departPos="5.10" departSpeed="0.00" departDelay="0.00" arrival="132.00" arrivalLane="160556513#3_0" arrivalPos="166.19" arrivalSpeed="11.38" duration="129.00" routeLength="1430.63" waitingTime="30.00" waitingCount="1" stopTime="0.00" timeLoss="60.76" rerouteNo="1" devices="tripinfo_6 routing_6" vType="DEFAULT_VEHTYPE" speedFactor="1.05" vaporized=""/>
    <tripinfo id="196" depart="98.00" departLane="-28120456#2_0" departPos="5.10" departSpeed="0.00" departDelay="0.00" arrival="133.00" arrivalLane="243896990#12_0" arrivalPos="0.20" arrivalSpeed="13.20" duration="35.00" routeLength="368.04" waitingTime="0.00" waitingCount="0" stopTime="0.00" timeLoss="7.99" rerouteNo="1" devices="tripinfo_196 routing_196" vType="DEFAULT_VEHTYPE" speedFactor="1.03" vaporized=""/>
    <tripinfo id="106" depart="53.00" departLane="-40696199#2_0" departPos="5.10" departSpeed="0.00" departDelay="0.00" arrival="135.00" arrivalLane="28120456#2_0" arrivalPos="32.14" arrivalSpeed="13.73" duration="82.00" routeLength="975.98" waitingTime="0.00" waitingCount="0" stopTime="0.00" timeLoss="24.09" rerouteNo="1" devices="tripinfo_106 routing_106" vType="DEFAULT_VEHTYPE" speedFactor="1.01" vaporized=""/>
    <tripinfo id="178" depart="89.00" departLane="-28120450_0" departPos="5.10" departSpeed="0.00" departDelay="0.00" arrival="137.00" arrivalLane="1166289667_0" arrivalPos="48.84" arrivalSpeed="16.51" duration="48.00" routeLength="530.55" waitingTime="0.00" waitingCount="0" stopTime="0.00" timeLoss="15.58" rerouteNo="1" devices="tripinfo_178 routing_178" vType="DEFAULT_VEHTYPE" speedFactor="1.08" vaporized=""/>
    <tripinfo id="156" depart="78.00" departLane="-1042112410_0" departPos="0.20" departSpeed="0.00" departDelay="0.00" arrival="138.00" arrivalLane="661917532_0" arrivalPos="149.93" arrivalSpeed="2.58" duration="60.00" routeLength="165.08" waitingTime="0.00" waitingCount="0" stopTime="0.00" timeLoss="12.70" rerouteNo="0" devices="tripinfo_156 routing_156" vType="DEFAULT_VEHTYPE" speedFactor="1.18" vaporized=""/>
    <tripinfo id="24" depart="12.00" departLane="-27934968#1_0" departPos="5.10" departSpeed="0.00" departDelay="0.00" arrival="142.00" arrivalLane="-692909359#1_0" arrivalPos="38.60" arrivalSpeed="10.49" duration="130.00" routeLength="1153.65" waitingTime="24.00" waitingCount="1" stopTime="0.00" timeLoss="49.35" rerouteNo="1" devices="tripinfo_24 routing_24" vType="DEFAULT_VEHTYPE" speedFactor="0.83" vaporized=""/>
    <tripinfo id="10" depart="5.00" departLane="-1387960816#3_0" departPos="5.10" departSpeed="0.00" departDelay="0.00" arrival="144.00" arrivalLane="-164040897#1_0" arrivalPos="77.39" arrivalSpeed="14.87" duration="139.00" routeLength="1880.82" waitingTime="0.00" waitingCount="0" stopTime="0.00" timeLoss="34.57" rerouteNo="1" devices="tripinfo_10 routing_10" vType="DEFAULT_VEHTYPE" speedFactor="1.09" vaporized=""/>
    <tripinfo id="256" depart="128.00" departLane="1109599641_0" departPos="0.44" departSpeed="0.00" departDelay="0.00" arrival="144.00" arrivalLane="229976708#3_0" arrivalPos="36.33" arrivalSpeed="19.00" duration="16.00" routeLength="132.07" waitingTime="0.00" waitingCount="0" stopTime="0.00" timeLoss="8.04" rerouteNo="1" devices="tripinfo_256 routing_256" vType="DEFAULT_VEHTYPE" speedFactor="0.96" vaporized=""/>
    <tripinfo id="40" depart="20.00" departLane="-1109599638_0" departPos="5.10" departSpeed="0.00" departDelay="0.00" arrival="149.00" arrivalLane="28103470_0" arrivalPos="121.28" arrivalSpeed="13.97" duration="129.00" routeLength="1037.84" waitingTime="29.00" waitingCount="1" stopTime="0.00" timeLoss="53.62" rerouteNo="1" devices="tripinfo_40 routing_40" vType="DEFAULT_VEHTYPE" speedFactor="1.03" vaporized=""/>
    <tripinfo id="154" depart="77.00" departLane="-692207400#2_0" departPos="5.10" departSpeed="0.00" departDelay="0.00" arrival="150.00" arrivalLane="1421955576#1_0" arrivalPos="20.79" arrivalSpeed="8.65" duration="73.00" routeLength="604.90" waitingTime="0.00" waitingCount="0" stopTime="0.00" timeLoss="9.06" rerouteNo="1" devices="tripinfo_154 routing_154" vType="DEFAULT_VEHTYPE" speedFactor="1.06" vaporized=""/>
    <tripinfo id="208" depart="105.00" departLane="-678335364#2_0" departPos="5.10" departSpeed="0.00" departDelay="1.00" arrival="151.00" arrivalLane="-1101690290_0" arrivalPos="44.05" arrivalSpeed="13.16" duration="46.00" routeLength="570.59" waitingTime="0.00" waitingCount="0" stopTime="0.00" timeLoss="15.16" rerouteNo="1" devices="tripinfo_208 routing_208" vType="DEFAULT_VEHTYPE" speedFactor="0.96" vaporized=""/>
    <tripinfo id="66" depart="34.00" departLane="-128220208#6_0" departPos="5.10" departSpeed="0.00" departDelay="1.00" arrival="153.00" arrivalLane="243553548#0_0" arrivalPos="33.25" arrivalSpeed="11.69" duration="119.00" routeLength="1351.90" waitingTime="0.00" waitingCount="0" stopTime="0.00" timeLoss="23.28" rerouteNo="1" devices="tripinfo_66 routing_66" vType="DEFAULT_VEHTYPE" speedFactor="0.91" vaporized=""/>
    <tripinfo id="206" depart="103.00" departLane="-726834057#0_0" departPos="5.10" departSpeed="0.00" departDelay="0.00" arrival="154.00" arrivalLane="59482112#2_0" arrivalPos="19.47" arrivalSpeed="12.13" duration="51.00" routeLength="558.21" waitingTime="0.00" waitingCount="0" stopTime="0.00" timeLoss="15.98" rerouteNo="1" devices="tripinfo_206 routing_206" vType="DEFAULT_VEHTYPE" speedFactor="1.00" vaporized=""/>
    <tripinfo id="184" depart="92.00" departLane="28120427#8_0" departPos="3.52" departSpeed="0.00" departDelay="0.00" arrival="155.00" arrivalLane="310665111#1_0" arrivalPos="12.35" arrivalSpeed="10.31" duration="63.00" routeLength="722.75" waitingTime="0.00" waitingCount="0" stopTime="0.00" timeLoss="16.12" rerouteNo="1" devices="tripinfo_184 routing_184" vType="DEFAULT_VEHTYPE" speedFactor="0.94" vaporized=""/>
    <tripinfo id="108" depart="54.00" departLane="97187758_0" departPos="5.10" departSpeed="0.00" departDelay="0.00" arrival="160.00" arrivalLane="886485940#3_0" arrivalPos="0.20" arrivalSpeed="4.04" duration="106.00" routeLength="1497.92" waitingTime="0.00" waitingCount="0" stopTime="0.00" timeLoss="18.35" rerouteNo="1" devices="tripinfo_108 routing_108" vType="DEFAULT_VEHTYPE" speedFactor="1.06" vaporized=""/>
    <tripinfo id="100" depart="50.00" departLane="491889864#3_0" departPos="5.10" departSpeed="0.00" departDelay="0.00" arrival="161.00" arrivalLane="-290639912#0_0" arrivalPos="27.16" arrivalSpeed="23.04" duration="111.00" routeLength="917.93" waitingTime="33.00" waitingCount="2" stopTime="0.00" timeLoss="54.73" rerouteNo="1" devices="tripinfo_100 routing_100" vType="DEFAULT_VEHTYPE" speedFactor="1.06" vaporized=""/>
    <tripinfo id="248" depart="124.00" departLane="27935252#3_0" departPos="5.10" departSpeed="0.00" departDelay="0.00" arrival="163.00" arrivalLane="1101690290_0" arrivalPos="44.05" arrivalSpeed="14.79" duration="39.00" routeLength="399.18" waitingTime="0.00" waitingCount="0" stopTime="0.00" timeLoss="10.27" rerouteNo="1" devices="tripinfo_248 routing_248" vType="DEFAULT_VEHTYPE" speedFactor="1.14" vaporized=""/>
    <tripinfo id="222" depart="111.00" departLane="-27994464#1_0" departPos="5.10" departSpeed="0.00" departDelay="0.00" arrival="165.00" arrivalLane="-40696212#0_0" arrivalPos="47.01" arrivalSpeed="11.42" duration="54.00" routeLength="518.29" waitingTime="0.00" waitingCount="0" stopTime="0.00" timeLoss="14.10" rerouteNo="1" devices="tripinfo_222 routing_222" vType="DEFAULT_VEHTYPE" speedFactor="0.84" vaporized=""/>
    <tripinfo id="122" depart="61.00" departLane="-726834057#4_0" departPos="5.10" departSpeed="0.00" departDelay="0.00" arrival="167.00" arrivalLane="-32267022#2_0" arrivalPos="151.83" arrivalSpeed="13.41" duration="106.00" routeLength="1099.59" waitingTime="0.00" waitingCount="0" stopTime="0.00" timeLoss="22.98" rerouteNo="1" devices="tripinfo_122 routing_122" vType="DEFAULT_VEHTYPE" speedFactor="1.03" vaporized=""/>
    <tripinfo id="20" depart="10.00" departLane="-660103250_0" departPos="5.10" departSpeed="0.00" departDelay="0.00" arrival="169.00" arrivalLane="-28103474#2_0" arrivalPos="67.24" arrivalSpeed="13.00" duration="159.00" routeLength="1823.75" waitingTime="14.00" waitingCount="1" stopTime="0.00" timeLoss="47.87" rerouteNo="1" devices="tripinfo_20 routing_20" vType="DEFAULT_VEHTYPE" speedFactor="1.02" vaporized=""/>
    <tripinfo id="50" depart="27.00" departLane="290639912#1_0" departPos="5.10" departSpeed="0.00" departDelay="2.00" arrival="172.00" arrivalLane="1299917517_0" arrivalPos="327.41" arrivalSpeed="8.79" duration="145.00" routeLength="1374.97" waitingTime="0.00" waitingCount="0" stopTime="0.00" timeLoss="19.78" rerouteNo="1" devices="tripinfo_50 routing_50" vType="DEFAULT_VEHTYPE" speedFactor="0.85" vaporized=""/>
    <tripinfo id="146" depart="73.00" departLane="-40696205#0_0" departPos="5.10" departSpeed="0.00" departDelay="0.00" arrival="173.00" arrivalLane="464465162#1_0" arrivalPos="79.20" arrivalSpeed="14.36" duration="100.00" routeLength="736.98" waitingTime="24.00" waitingCount="1" stopTime="0.00" timeLoss="41.78" rerouteNo="1" devices="tripinfo_146 routing_146" vType="DEFAULT_VEHTYPE" speedFactor="0.89" vaporized=""/>
    <tripinfo id="172" depart="86.00" departLane="-886485942_0" departPos="5.10" departSpeed="0.00" departDelay="0.00" arrival="173.00" arrivalLane="-28120427#0_0" arrivalPos="57.65" arrivalSpeed="11.76" duration="87.00" routeLength="619.47" waitingTime="12.00" waitingCount="1" stopTime="0.00" timeLoss="33.42" rerouteNo="1" devices="tripinfo_172 routing_172" vType="DEFAULT_VEHTYPE" speedFactor="0.89" vaporized=""/>
    <tripinfo id="80" depart="40.00" departLane="-27935252#5_0" departPos="5.10" departSpeed="0.00" departDelay="0.00" arrival="174.00" arrivalLane="1109599645_0" arrivalPos="43.27" arrivalSpeed="13.56" duration="134.00" routeLength="1680.51" waitingTime="0.00" waitingCount="0" stopTime="0.00" timeLoss="31.70" rerouteNo="1" devices="tripinfo_80 routing_80" vType="DEFAULT_VEHTYPE" speedFactor="1.03" vaporized=""/>
    <tripinfo id="200" depart="100.00" departLane="-310665594#1_0" departPos="5.10" departSpeed="0.00" departDelay="0.00" arrival="174.00" arrivalLane="-40696204#0_0" arrivalPos="100.64" arrivalSpeed="12.26" duration="74.00" routeLength="635.56" waitingTime="9.00" waitingCount="1" stopTime="0.00" timeLoss="30.06" rerouteNo="1" devices="tripinfo_200 routing_200" vType="DEFAULT_VEHTYPE" speedFactor="0.95" vaporized=""/>
    <tripinfo id="60" depart="30.00" departLane="128220208#4_0" departPos="5.10" departSpeed="0.00" departDelay="0.00" arrival="176.00" arrivalLane="28120427#1_0" arrivalPos="22.35" arrivalSpeed="10.10" duration="146.00" routeLength="1833.38" waitingTime="0.00" waitingCount="0" stopTime="0.00" timeLoss="49.88" rerouteNo="1" devices="tripinfo_60 routing_60" vType="DEFAULT_VEHTYPE" speedFactor="1.08" vaporized=""/>
    <tripinfo id="32" depart="16.00" departLane="243896990#13_0" departPos="5.10" departSpeed="0.00" departDelay="0.00" arrival="177.00" arrivalLane="-695251940#0_0" arrivalPos="0.20" arrivalSpeed="13.79" duration="161.00" routeLength="1188.92" waitingTime="47.00" waitingCount="2" stopTime="0.00" timeLoss="90.44" rerouteNo="1" devices="tripinfo_32 routing_32" vType="DEFAULT_VEHTYPE" speedFactor="1.01" vaporized=""/>
    <tripinfo id="14" depart="7.00" departLane="-678335364#0_0" departPos="5.10" departSpeed="0.00" departDelay="0.00" arrival="181.00" arrivalLane="133748880#0_0" arrivalPos="27.48" arrivalSpeed="12.75" duration="174.00" routeLength="1320.12" waitingTime="59.00" waitingCount="1" stopTime="0.00" timeLoss="89.78" rerouteNo="1" devices="tripinfo_14 routing_14" vType="DEFAULT_VEHTYPE" speedFactor="0.99" vaporized=""/>
    <tripinfo id="42" depart="21.00" departLane="-229976708#10_0" departPos="5.10" departSpeed="0.00" departDelay="0.00" arrival="182.00" arrivalLane="1101675583_0" arrivalPos="15.62" arrivalSpeed="12.25" duration="161.00" routeLength="894.19" waitingTime="81.00" waitingCount="2" stopTime="0.00" timeLoss="121.24" rerouteNo="1" devices="tripinfo_42 routing_42" vType="DEFAULT_VEHTYPE" speedFactor="1.09" vaporized=""/>
    <tripinfo id="64" depart="33.00" departLane="-229976708#5_0" departPos="5.10" departSpeed="0.00" departDelay="1.00" arrival="187.00" arrivalLane="-28120433#3_0" arrivalPos="19.02" arrivalSpeed="19.82" duration="154.00" routeLength="1508.61" waitingTime="5.00" waitingCount="3" stopTime="0.00" timeLoss="49.40" rerouteNo="1" devices="tripinfo_64 routing_64" vType="DEFAULT_VEHTYPE" speedFactor="0.94" vaporized=""/>
    <tripinfo id="224" depart="112.00" departLane="28120431#0_0" departPos="5.10" departSpeed="0.00" departDelay="0.00" arrival="189.00" arrivalLane="40696199#0_0" arrivalPos="135.38" arrivalSpeed="13.54" duration="77.00" routeLength="606.71" waitingTime="17.00" waitingCount="1" stopTime="0.00" timeLoss="40.76" rerouteNo="1" devices="tripinfo_224 routing_224" vType="DEFAULT_VEHTYPE" speedFactor="1.02" vaporized=""/>
    <tripinfo id="320" depart="160.00" departLane="-558743551#1_0" departPos="5.10" departSpeed="0.00" departDelay="0.00" arrival="189.00" arrivalLane="-500860056#0_0" arrivalPos="6.64" arrivalSpeed="13.68" duration="29.00" routeLength="256.70" waitingTime="0.00" waitingCount="0" stopTime="0.00" timeLoss="10.43" rerouteNo="1" devices="tripinfo_320 routing_320" vType="DEFAULT_VEHTYPE" speedFactor="1.16" vaporized=""/>
    <tripinfo id="214" depart="107.00" departLane="-886485936#4_0" departPos="5.10" departSpeed="0.00" departDelay="0.00" arrival="192.00" arrivalLane="-1185468746_0" arrivalPos="11.92" arrivalSpeed="6.64" duration="85.00" routeLength="845.56" waitingTime="0.00" waitingCount="0" stopTime="0.00" timeLoss="25.70" rerouteNo="1" devices="tripinfo_214 routing_214" vType="DEFAULT_VEHTYPE" speedFactor="0.83" vaporized=""/>
    <tripinfo id="286" depart="143.00" departLane="-1331889740_0" departPos="0.20" departSpeed="0.00" departDelay="0.00" arrival="193.00" arrivalLane="243553546#1_0" arrivalPos="37.43" arrivalSpeed="12.35" duration="50.00" routeLength="684.94" waitingTime="0.00" waitingCount="0" stopTime="0.00" timeLoss="10.54" rerouteNo="1" devices="tripinfo_286 routing_286" vType="DEFAULT_VEHTYPE" speedFactor="0.98" vaporized=""/>
    <tripinfo id="194" depart="97.00" departLane="491889865#7_0" departPos="5.10" departSpeed="0.00" departDelay="0.00" arrival="196.00" arrivalLane="28120439#2_0" arrivalPos="23.82" arrivalSpeed="12.80" duration="99.00" routeLength="1315.41" waitingTime="0.00" waitingCount="0" stopTime="0.00" timeLoss="28.05" rerouteNo="1" devices="tripinfo_194 routing_194" vType="DEFAULT_VEHTYPE" speedFactor="1.00" vaporized=""/>
    <tripinfo id="142" depart="71.00" departLane="40696214#0_0" departPos="5.10" departSpeed="0.00" departDelay="0.00" arrival="197.00" arrivalLane="40696219#1_0" arrivalPos="46.49" arrivalSpeed="14.60" duration="126.00" routeLength="1505.57" waitingTime="0.00" waitingCount="0" stopTime="0.00" timeLoss="39.58" rerouteNo="1" devices="tripinfo_142 routing_142" vType="DEFAULT_VEHTYPE" speedFactor="0.94" vaporized=""/>
    <tripinfo id="262" depart="131.00" departLane="27934983#1_0" departPos="5.10" departSpeed="0.00" departDelay="0.00" arrival="198.00" arrivalLane="245809758#2_0" arrivalPos="6.19" arrivalSpeed="8.02" duration="67.00" routeLength="635.00" waitingTime="0.00" waitingCount="0" stopTime="0.00" timeLoss="24.93" rerouteNo="1" devices="tripinfo_262 routing_262" vType="DEFAULT_VEHTYPE" speedFactor="1.04" vaporized=""/>
    <tripinfo id="136" depart="68.00" departLane="334652524_0" departPos="5.10" departSpeed="0.00" departDelay="0.00" arrival="199.00" arrivalLane="500860056#0_0" arrivalPos="6.64" arrivalSpeed="7.16" duration="131.00" routeLength="1745.51" waitingTime="0.00" waitingCount="0" stopTime="0.00" timeLoss="28.68" rerouteNo="1" devices="tripinfo_136 routing_136" vType="DEFAULT_VEHTYPE" speedFactor="1.12" vaporized=""/>
    <tripinfo id="304" depart="152.00" departLane="243553548#0_0" departPos="5.10" departSpeed="0.00" departDelay="0.00" arrival="199.00" arrivalLane="59482112#7_0" arrivalPos="9.10" arrivalSpeed="13.14" duration="47.00" routeLength="448.68" waitingTime="0.00" waitingCount="0" stopTime="0.00" timeLoss="12.30" rerouteNo="1" devices="tripinfo_304 routing_304" vType="DEFAULT_VEHTYPE" speedFactor="0.98" vaporized=""/>
    <tripinfo id="124" depart="62.00" departLane="237025639#1_0" departPos="5.10" departSpeed="0.00" departDelay="0.00" arrival="206.00" arrivalLane="-310665116#1_0" arrivalPos="88.81" arrivalSpeed="13.58" duration="144.00" routeLength="1752.07" waitingTime="0.00" waitingCount="0" stopTime="0.00" timeLoss="42.05" rerouteNo="1" devices="tripinfo_124 routing_124" vType="DEFAULT_VEHTYPE" speedFactor="1.06" vaporized=""/>
    <tripinfo id="68" depart="34.00" departLane="40696202_0" departPos="5.10" departSpeed="0.00" departDelay="0.00" arrival="207.00" arrivalLane="-133647781#6_0" arrivalPos="28.13" arrivalSpeed="11.25" duration="173.00" routeLength="1840.39" waitingTime="0.00" waitingCount="0" stopTime="0.00" timeLoss="39.42" rerouteNo="1" devices="tripinfo_68 routing_68" vType="DEFAULT_VEHTYPE" speedFactor="1.04" vaporized=""/>
    <tripinfo id="188" depart="94.00" departLane="-28120461#1_0" departPos="5.10" departSpeed="0.00" departDelay="0.00" arrival="210.00" arrivalLane="40696205#1_0" arrivalPos="103.61" arrivalSpeed="4.58" duration="116.00" routeLength="1141.43" waitingTime="1.00" waitingCount="1" stopTime="0.00" timeLoss="39.30" rerouteNo="1" devices="tripinfo_188 routing_188" vType="DEFAULT_VEHTYPE" speedFactor="0.97" vaporized=""/>