<?xml version="1.0" encoding="UTF-8"?>

<!-- generated on 2025-09-21 06:53:27 by Eclipse SUMO GUI Version 1.24.0
<sumoConfiguration xmlns:xsi="http://www.w3.org/2001/XMLSchema-instance" xsi:noNamespaceSchemaLocation="http://sumo.dlr.de/xsd/sumoConfiguration.xsd">

    <input>
        <net-file value="../Banglore_Silk_Junction/osm.net.xml.gz"/>
        <route-files value="../Banglore_Silk_Junction/osm.routes.xml"/>
        <additional-files value="../Banglore_Silk_Junction/osm.poly.xml.gz,../Banglore_Silk_Junction/output.add.xml"/>
    </input>

    <output>
        <tripinfo-output value="../Banglore_Silk_Junction/tripinfos.xml"/>
        <statistic-output value="../Banglore_Silk_Junction/stats.xml"/>
    </output>

    <time>
        <step-length value="0.5"/>
    </time>

    <processing>
        <ignore-route-errors value="true"/>
        <tls.actuated.jam-threshold value="30"/>
    </processing>

    <routing>
        <device.rerouting.adaptation-steps value="18"/>
        <device.rerouting.adaptation-interval value="10"/>
    </routing>

    <report>
        <verbose value="true"/>
        <duration-log.statistics value="true"/>
        <no-step-log value="true"/>
    </report>

    <traci_server>
        <remote-port value="8813"/>
    </traci_server>

    <gui_only>
        <gui-settings-file value="../Banglore_Silk_Junction/osm.view.xml"/>
        <start value="true"/>
    </gui_only>

</sumoConfiguration>
-->

<tripinfos xmlns:xsi="http://www.w3.org/2001/XMLSchema-instance" xsi:noNamespaceSchemaLocation="http://sumo.dlr.de/xsd/tripinfo_file.xsd">
    <tripinfo id="7" depart="3.50" departLane="32267053#2_0" departPos="3.35" departSpeed="0.00" departDelay="0.00" arrival="26.00" arrivalLane="-1109597642_0" arrivalPos="34.75" arrivalSpeed="11.83" duration="22.50" routeLength="174.27" waitingTime="0.00" waitingCount="0" stopTime="0.00" timeLoss="6.64" rerouteNo="1" devices="tripinfo_7 routing_7" vType="DEFAULT_VEHTYPE" speedFactor="0.89" vaporized=""/>
    <tripinfo id="21" depart="10.50" departLane="-310665114_0" departPos="5.10" departSpeed="0.00" departDelay="0.00" arrival="45.50" arrivalLane="692909359#1_0" arrivalPos="37.30" arrivalSpeed="13.58" duration="35.00" routeLength="346.50" waitingTime="0.00" waitingCount="0" stopTime="0.00" timeLoss="8.14" rerouteNo="1" devices="tripinfo_21 routing_21" vType="DEFAULT_VEHTYPE" speedFactor="1.01" vaporized=""/>
    <tripinfo id="22" depart="11.00" departLane="243553548#1_0" departPos="5.10" departSpeed="0.00" departDelay="0.00" arrival="48.50" arrivalLane="229976708#2_0" arrivalPos="37.19" arrivalSpeed="11.89" duration="37.50" routeLength="421.15" waitingTime="0.00" waitingCount="0" stopTime="0.00" timeLoss="13.25" rerouteNo="1" devices="tripinfo_22 routing_22" vType="DEFAULT_VEHTYPE" speedFactor="0.97" vaporized=""/>
    <tripinfo id="65" depart="32.50" departLane="-28120427#7_0" departPos="5.10" departSpeed="0.00" departDelay="0.00" arrival="51.00" arrivalLane="-28120427#8_0" arrivalPos="3.52" arrivalSpeed="4.37" duration="18.50" routeLength="107.33" waitingTime="0.00" waitingCount="0" stopTime="0.00" timeLoss="7.52" rerouteNo="1" devices="tripinfo_65 routing_65" vType="DEFAULT_VEHTYPE" speedFactor="0.88" vaporized=""/>
    <tripinfo id="4" depart="2.00" departLane="-1110221920_0" departPos="5.10" departSpeed="0.00" departDelay="0.00" arrival="52.50" arrivalLane="-27994446#4_0" arrivalPos="45.15" arrivalSpeed="13.66" duration="50.50" routeLength="575.22" waitingTime="0.00" waitingCount="0" stopTime="0.00" timeLoss="11.15" rerouteNo="1" devices="tripinfo_4 routing_4" vType="DEFAULT_VEHTYPE" speedFactor="1.03" vaporized=""/>
    <tripinfo id="63" depart="31.50" departLane="-886485940#1_0" departPos="5.10" departSpeed="0.00" departDelay="0.00" arrival="59.00" arrivalLane="1280500777_0" arrivalPos="3.67" arrivalSpeed="9.87" duration="27.50" routeLength="209.03" waitingTime="0.00" waitingCount="0" stopTime="0.00" timeLoss="9.85" rerouteNo="1" devices="tripinfo_63 routing_63" vType="DEFAULT_VEHTYPE" speedFactor="0.99" vaporized=""/>
    <tripinfo id="30" depart="15.00" departLane="-27994464#0_0" departPos="5.10" departSpeed="0.00" departDelay="0.00" arrival="59.50" arrivalLane="694335186#1_0" arrivalPos="27.70" arrivalSpeed="13.39" duration="44.50" routeLength="603.43" waitingTime="0.00" waitingCount="0" stopTime="0.00" timeLoss="15.26" rerouteNo="1" devices="tripinfo_30 routing_30" vType="DEFAULT_VEHTYPE" speedFactor="1.18" vaporized=""/>
    <tripinfo id="70" depart="35.00" departLane="-27994589#1_0" departPos="5.10" departSpeed="0.00" departDelay="0.00" arrival="60.50" arrivalLane="-243896990#6_0" arrivalPos="15.81" arrivalSpeed="7.93" duration="25.50" routeLength="214.25" waitingTime="0.00" waitingCount="0" stopTime="0.00" timeLoss="8.29" rerouteNo="1" devices="tripinfo_70 routing_70" vType="DEFAULT_VEHTYPE" speedFactor="1.02" vaporized=""/>
    <tripinfo id="15" depart="7.50" departLane="380980308#0_0" departPos="5.10" departSpeed="0.00" departDelay="0.00" arrival="63.00" arrivalLane="232235457#2_0" arrivalPos="47.94" arrivalSpeed="12.85" duration="55.50" routeLength="532.73" waitingTime="0.00" waitingCount="0" stopTime="0.00" timeLoss="13.48" rerouteNo="1" devices="tripinfo_15 routing_15" vType="DEFAULT_VEHTYPE" speedFactor="0.93" vaporized=""/>
    <tripinfo id="34" depart="17.00" departLane="-310665112#2_0" departPos="5.10" departSpeed="0.00" departDelay="0.00" arrival="64.00" arrivalLane="-290639912#0_0" arrivalPos="27.16" arrivalSpeed="10.95" duration="47.00" routeLength="432.13" waitingTime="0.50" waitingCount="1" stopTime="0.00" timeLoss="15.58" rerouteNo="1" devices="tripinfo_34 routing_34" vType="DEFAULT_VEHTYPE" speedFactor="0.99" vaporized=""/>
    <tripinfo id="46" depart="23.00" departLane="59482012#1_0" departPos="5.10" departSpeed="0.00" departDelay="0.00" arrival="74.00" arrivalLane="491889864#1_0" arrivalPos="41.96" arrivalSpeed="13.79" duration="51.00" routeLength="455.98" waitingTime="0.00" waitingCount="0" stopTime="0.00" timeLoss="16.73" rerouteNo="1" devices="tripinfo_46 routing_46" vType="DEFAULT_VEHTYPE" speedFactor="1.00" vaporized=""/>
    <tripinfo id="36" depart="18.00" departLane="-694335198_0" departPos="5.10" departSpeed="0.00" departDelay="0.00" arrival="77.00" arrivalLane="-28120427#7_0" arrivalPos="43.32" arrivalSpeed="13.18" duration="59.00" routeLength="718.71" waitingTime="0.00" waitingCount="0" stopTime="0.00" timeLoss="9.97" rerouteNo="1" devices="tripinfo_36 routing_36" vType="DEFAULT_VEHTYPE" speedFactor="0.97" vaporized=""/>
    <tripinfo id="84" depart="42.00" departLane="995122863_0" departPos="5.10" departSpeed="0.00" departDelay="0.00" arrival="77.50" arrivalLane="40696199#5_0" arrivalPos="28.80" arrivalSpeed="11.40" duration="35.50" routeLength="320.11" waitingTime="0.00" waitingCount="0" stopTime="0.00" timeLoss="14.31" rerouteNo="1" devices="tripinfo_84 routing_84" vType="DEFAULT_VEHTYPE" speedFactor="1.15" vaporized=""/>
    <tripinfo id="41" depart="20.50" departLane="-310665114_0" departPos="5.10" departSpeed="0.00" departDelay="0.00" arrival="81.00" arrivalLane="243896990#5_0" arrivalPos="0.20" arrivalSpeed="3.03" duration="60.50" routeLength="741.08" waitingTime="0.00" waitingCount="0" stopTime="0.00" timeLoss="7.88" rerouteNo="1" devices="tripinfo_41 routing_41" vType="DEFAULT_VEHTYPE" speedFactor="0.96" vaporized=""/>
    <tripinfo id="81" depart="41.50" departLane="-726834057#2_0" departPos="0.20" departSpeed="0.00" departDelay="1.00" arrival="81.50" arrivalLane="-32267053#2_0" arrivalPos="3.35" arrivalSpeed="13.30" duration="40.00" routeLength="376.34" waitingTime="0.00" waitingCount="0" stopTime="0.00" timeLoss="9.26" rerouteNo="1" devices="tripinfo_81 routing_81" vType="DEFAULT_VEHTYPE" speedFactor="1.00" vaporized=""/>
    <tripinfo id="12" depart="6.00" departLane="32267022#1_0" departPos="5.10" departSpeed="0.00" departDelay="0.00" arrival="82.50" arrivalLane="28120427#1_0" arrivalPos="22.35" arrivalSpeed="9.68" duration="76.50" routeLength="764.82" waitingTime="9.50" waitingCount="1" stopTime="0.00" timeLoss="33.21" rerouteNo="1" devices="tripinfo_12 routing_12" vType="DEFAULT_VEHTYPE" speedFactor="1.05" vaporized=""/>
    <tripinfo id="31" depart="15.50" departLane="40696219#1_0" departPos="5.10" departSpeed="0.00" departDelay="0.00" arrival="84.50" arrivalLane="-40696200#3_0" arrivalPos="44.97" arrivalSpeed="14.41" duration="69.00" routeLength="687.04" waitingTime="8.50" waitingCount="1" stopTime="0.00" timeLoss="26.99" rerouteNo="1" devices="tripinfo_31 routing_31" vType="DEFAULT_VEHTYPE" speedFactor="1.15" vaporized=""/>
    <tripinfo id="3" depart="1.50" departLane="-726834057#2_0" departPos="0.20" departSpeed="0.00" departDelay="0.00" arrival="86.00" arrivalLane="-1185876385_0" arrivalPos="72.17" arrivalSpeed="14.72" duration="84.50" routeLength="761.92" waitingTime="9.00" waitingCount="1" stopTime="0.00" timeLoss="31.19" rerouteNo="1" devices="tripinfo_3 routing_3" vType="DEFAULT_VEHTYPE" speedFactor="1.08" vaporized=""/>
    <tripinfo id="38" depart="19.00" departLane="310665116#0_0" departPos="5.10" departSpeed="0.00" departDelay="0.00" arrival="92.50" arrivalLane="-995122863_0" arrivalPos="19.78" arrivalSpeed="11.70" duration="73.50" routeLength="771.73" waitingTime="2.50" waitingCount="1" stopTime="0.00" timeLoss="25.46" rerouteNo="1" devices="tripinfo_38 routing_38" vType="DEFAULT_VEHTYPE" speedFactor="1.10" vaporized=""/>
    <tripinfo id="147" depart="73.50" departLane="694563683_0" departPos="5.10" departSpeed="0.00" departDelay="0.00" arrival="93.00" arrivalLane="-32267053#3_0" arrivalPos="38.97" arrivalSpeed="13.50" duration="19.50" routeLength="157.34" waitingTime="0.00" waitingCount="0" stopTime="0.00" timeLoss="6.51" rerouteNo="1" devices="tripinfo_147 routing_147" vType="DEFAULT_VEHTYPE" speedFactor="1.00" vaporized=""/>
    <tripinfo id="37" depart="18.50" departLane="-195162439_0" departPos="5.10" departSpeed="0.00" departDelay="0.00" arrival="93.50" arrivalLane="243553545#2_0" arrivalPos="40.18" arrivalSpeed="9.82" duration="75.00" routeLength="833.84" waitingTime="0.00" waitingCount="0" stopTime="0.00" timeLoss="24.05" rerouteNo="1" devices="tripinfo_37 routing_37" vType="DEFAULT_VEHTYPE" speedFactor="1.18" vaporized=""/>
    <tripinfo id="2" depart="1.00" departLane="491889865#1_0" departPos="5.10" departSpeed="0.00" departDelay="0.00" arrival="94.00" arrivalLane="-147575130#0_0" arrivalPos="18.30" arrivalSpeed="11.96" duration="93.00" routeLength="925.16" waitingTime="7.50" waitingCount="2" stopTime="0.00" timeLoss="33.08" rerouteNo="1" devices="tripinfo_2 routing_2" vType="DEFAULT_VEHTYPE" speedFactor="1.01" vaporized=""/>
    <tripinfo id="109" depart="54.50" departLane="-1331889739_0" departPos="5.10" departSpeed="0.00" departDelay="0.00" arrival="94.50" arrivalLane="-28120426_0" arrivalPos="97.10" arrivalSpeed="13.01" duration="40.00" routeLength="413.87" waitingTime="0.00" waitingCount="0" stopTime="0.00" timeLoss="7.72" rerouteNo="1" devices="tripinfo_109 routing_109" vType="DEFAULT_VEHTYPE" speedFactor="0.96" vaporized=""/>
    <tripinfo id="44" depart="22.00" departLane="40696219#1_0" departPos="5.10" departSpeed="0.00" departDelay="0.00" arrival="97.50" arrivalLane="-310665594#1_0" arrivalPos="45.30" arrivalSpeed="14.40" duration="75.50" routeLength="577.31" waitingTime="27.00" waitingCount="1" stopTime="0.00" timeLoss="45.52" rerouteNo="1" devices="tripinfo_44 routing_44" vType="DEFAULT_VEHTYPE" speedFactor="1.04" vaporized=""/>
    <tripinfo id="79" depart="39.50" departLane="40696203#1_0" departPos="5.10" departSpeed="0.00" departDelay="0.00" arrival="101.00" arrivalLane="-290639912#3_0" arrivalPos="16.55" arrivalSpeed="11.39" duration="61.50" routeLength="199.62" waitingTime="29.50" waitingCount="2" stopTime="0.00" timeLoss="47.49" rerouteNo="1" devices="tripinfo_79 routing_79" vType="DEFAULT_VEHTYPE" speedFactor="1.09" vaporized=""/>
    <tripinfo id="102" depart="51.00" departLane="-696064754_0" departPos="5.10" departSpeed="0.00" departDelay="0.00" arrival="102.00" arrivalLane="147575130#1_0" arrivalPos="9.07" arrivalSpeed="10.68" duration="51.00" routeLength="432.38" waitingTime="3.00" waitingCount="1" stopTime="0.00" timeLoss="19.55" rerouteNo="1" devices="tripinfo_102 routing_102" vType="DEFAULT_VEHTYPE" speedFactor="0.97" vaporized=""/>
    <tripinfo id="82" depart="41.00" departLane="-28120461#2_0" departPos="5.10" departSpeed="0.00" departDelay="0.00" arrival="109.00" arrivalLane="660358967#1_0" arrivalPos="3.26" arrivalSpeed="8.62" duration="68.00" routeLength="809.86" waitingTime="0.00" waitingCount="0" stopTime="0.00" timeLoss="13.76" rerouteNo="1" devices="tripinfo_82 routing_82" vType="DEFAULT_VEHTYPE" speedFactor="1.02" vaporized=""/>
    <tripinfo id="130" depart="65.00" departLane="-40693535#0_0" departPos="5.10" departSpeed="0.00" departDelay="0.00" arrival="111.00" arrivalLane="59482082#1_0" arrivalPos="35.73" arrivalSpeed="13.81" duration="46.00" routeLength="586.42" waitingTime="0.00" waitingCount="0" stopTime="0.00" timeLoss="15.11" rerouteNo="1" devices="tripinfo_130 routing_130" vType="DEFAULT_VEHTYPE" speedFactor="1.03" vaporized=""/>
    <tripinfo id="168" depart="84.00" departLane="-38098067#2_0" departPos="5.10" departSpeed="0.00" departDelay="0.00" arrival="111.00" arrivalLane="133647781#4_0" arrivalPos="18.50" arrivalSpeed="13.37" duration="27.00" routeLength="247.04" waitingTime="0.00" waitingCount="0" stopTime="0.00" timeLoss="7.14" rerouteNo="1" devices="tripinfo_168 routing_168" vType="DEFAULT_VEHTYPE" speedFactor="0.98" vaporized=""/>
    <tripinfo id="112" depart="56.00" departLane="-660092340_0" departPos="5.10" departSpeed="0.00" departDelay="0.00" arrival="111.50" arrivalLane="-27934975#0_0" arrivalPos="16.76" arrivalSpeed="11.14" duration="55.50" routeLength="443.52" waitingTime="9.50" waitingCount="1" stopTime="0.00" timeLoss="23.31" rerouteNo="1" devices="tripinfo_112 routing_112" vType="DEFAULT_VEHTYPE" speedFactor="1.10" vaporized=""/>
    <tripinfo id="181" depart="90.50" departLane="-27936034#2_0" departPos="5.10" departSpeed="0.00" departDelay="0.00" arrival="112.00" arrivalLane="27936029#1_0" arrivalPos="38.94" arrivalSpeed="14.23" duration="21.50" routeLength="209.03" waitingTime="0.00" waitingCount="0" stopTime="0.00" timeLoss="5.64" rerouteNo="1" devices="tripinfo_181 routing_181" vType="DEFAULT_VEHTYPE" speedFactor="1.03" vaporized=""/>
    <tripinfo id="187" depart="93.50" departLane="123629036#3_0" departPos="5.10" departSpeed="0.00" departDelay="0.00" arrival="113.00" arrivalLane="-123629179#0_0" arrivalPos="162.24" arrivalSpeed="12.08" duration="19.50" routeLength="182.20" waitingTime="0.00" waitingCount="0" stopTime="0.00" timeLoss="3.50" rerouteNo="0" devices="tripinfo_187 routing_187" vType="DEFAULT_VEHTYPE" speedFactor="0.89" vaporized=""/>
    <tripinfo id="18" depart="9.00" departLane="-164040895#0_0" departPos="5.10" departSpeed="0.00" departDelay="0.00" arrival="114.00" arrivalLane="-32267053#2_0" arrivalPos="3.35" arrivalSpeed="12.46" duration="105.00" routeLength="1034.81" waitingTime="4.00" waitingCount="1" stopTime="0.00" timeLoss="25.86" rerouteNo="1" devices="tripinfo_18 routing_18" vType="DEFAULT_VEHTYPE" speedFactor="0.94" vaporized=""/>
    <tripinfo id="56" depart="28.00" departLane="28120450_0" departPos="5.10" departSpeed="0.00" departDelay="0.00" arrival="116.00" arrivalLane="-243896990#13_0" arrivalPos="22.73" arrivalSpeed="9.65" duration="88.00" routeLength="588.63" waitingTime="18.50" waitingCount="3" stopTime="0.00" timeLoss="39.23" rerouteNo="1" devices="tripinfo_56 routing_56" vType="DEFAULT_VEHTYPE" speedFactor="0.90" vaporized=""/>
    <tripinfo id="96" depart="48.00" departLane="1185876385_0" departPos="5.10" departSpeed="0.00" departDelay="0.00" arrival="117.00" arrivalLane="40696212#1_0" arrivalPos="79.23" arrivalSpeed="13.43" duration="69.00" routeLength="738.77" waitingTime="3.50" waitingCount="1" stopTime="0.00" timeLoss="18.43" rerouteNo="1" devices="tripinfo_96 routing_96" vType="DEFAULT_VEHTYPE" speedFactor="1.01" vaporized=""/>
    <tripinfo id="59" depart="29.50" departLane="-726834057#3_0" departPos="0.77" departSpeed="0.00" departDelay="0.00" arrival="119.00" arrivalLane="-28103476#0_0" arrivalPos="0.20" arrivalSpeed="13.29" duration="89.50" routeLength="548.40" waitingTime="24.50" waitingCount="1" stopTime="0.00" timeLoss="43.76" rerouteNo="1" devices="tripinfo_59 routing_59" vType="DEFAULT_VEHTYPE" speedFactor="0.97" vaporized=""/>
    <tripinfo id="137" depart="68.50" departLane="-1110221362_0" departPos="5.10" departSpeed="0.00" departDelay="0.00" arrival="123.50" arrivalLane="28120431#0_0" arrivalPos="35.13" arrivalSpeed="13.53" duration="55.00" routeLength="406.16" waitingTime="10.00" waitingCount="1" stopTime="0.00" timeLoss="25.69" rerouteNo="1" devices="tripinfo_137 routing_137" vType="DEFAULT_VEHTYPE" speedFactor="1.02" vaporized=""/>
    <tripinfo id="134" depart="67.00" departLane="-27934861#4_0" departPos="5.10" departSpeed="0.00" departDelay="0.00" arrival="125.50" arrivalLane="678335364#3_0" arrivalPos="43.86" arrivalSpeed="26.71" duration="58.50" routeLength="494.93" waitingTime="16.00" waitingCount="1" stopTime="0.00" timeLoss="33.66" rerouteNo="1" devices="tripinfo_134 routing_134" vType="DEFAULT_VEHTYPE" speedFactor="1.23" vaporized=""/>
    <tripinfo id="180" depart="90.00" departLane="-695251944#1_0" departPos="5.10" departSpeed="0.00" departDelay="0.00" arrival="126.00" arrivalLane="243553546#1_0" arrivalPos="37.43" arrivalSpeed="14.95" duration="36.00" routeLength="321.42" waitingTime="1.00" waitingCount="1" stopTime="0.00" timeLoss="13.00" rerouteNo="1" devices="tripinfo_180 routing_180" vType="DEFAULT_VEHTYPE" speedFactor="1.10" vaporized=""/>
    <tripinfo id="94" depart="47.00" departLane="694563704_0" departPos="5.10" departSpeed="0.00" departDelay="0.00" arrival="126.50" arrivalLane="1424147361_0" arrivalPos="19.44" arrivalSpeed="11.67" duration="79.50" routeLength="773.52" waitingTime="0.50" waitingCount="1" stopTime="0.00" timeLoss="25.73" rerouteNo="1" devices="tripinfo_94 routing_94" vType="DEFAULT_VEHTYPE" speedFactor="1.09" vaporized=""/>
    <tripinfo id="201" depart="100.50" departLane="128220208#5_0" departPos="5.10" departSpeed="0.00" departDelay="0.00" arrival="129.00" arrivalLane="-27934854#3_0" arrivalPos="52.09" arrivalSpeed="14.46" duration="28.50" routeLength="252.34" waitingTime="0.00" waitingCount="0" stopTime="0.00" timeLoss="10.51" rerouteNo="1" devices="tripinfo_201 routing_201" vType="DEFAULT_VEHTYPE" speedFactor="0.87" vaporized=""/>
    <tripinfo id="8" depart="4.00" departLane="322022988#9_0" departPos="5.10" departSpeed="0.00" departDelay="0.00" arrival="130.00" arrivalLane="27936034#1_0" arrivalPos="47.92" arrivalSpeed="12.61" duration="126.00" routeLength="1170.01" waitingTime="26.00" waitingCount="1" stopTime="0.00" timeLoss="48.85" rerouteNo="1" devices="tripinfo_8 routing_8" vType="DEFAULT_VEHTYPE" speedFactor="0.94" vaporized=""/>
    <tripinfo id="196" depart="98.00" departLane="-28120456#2_0" departPos="5.10" departSpeed="0.00" departDelay="0.00" arrival="133.00" arrivalLane="243896990#12_0" arrivalPos="0.20" arrivalSpeed="13.91" duration="35.00" routeLength="368.04" waitingTime="0.00" waitingCount="0" stopTime="0.00" timeLoss="7.93" rerouteNo="1" devices="tripinfo_196 routing_196" vType="DEFAULT_VEHTYPE" speedFactor="1.03" vaporized=""/>
    <tripinfo id="6" depart="3.00" departLane="-28103474#3_0" departPos="5.10" departSpeed="0.00" departDelay="0.00" arrival="133.50" arrivalLane="160556513#3_0" arrivalPos="166.19" arrivalSpeed="11.23" duration="130.50" routeLength="1430.63" waitingTime="29.50" waitingCount="1" stopTime="0.00" timeLoss="62.50" rerouteNo="1" devices="tripinfo_6 routing_6" vType="DEFAULT_VEHTYPE" speedFactor="1.05" vaporized=""/>
    <tripinfo id="229" depart="114.50" departLane="243896990#0_0" departPos="5.10" departSpeed="0.00" departDelay="0.00" arrival="134.00" arrivalLane="28120461#2_0" arrivalPos="54.98" arrivalSpeed="13.70" duration="19.50" routeLength="189.49" waitingTime="0.00" waitingCount="0" stopTime="0.00" timeLoss="4.75" rerouteNo="1" devices="tripinfo_229 routing_229" vType="DEFAULT_VEHTYPE" speedFactor="0.99" vaporized=""/>
    <tripinfo id="153" depart="76.50" departLane="27994446#3_0" departPos="5.10" departSpeed="0.00" departDelay="0.00" arrival="136.50" arrivalLane="-40696200#2_0" arrivalPos="17.74" arrivalSpeed="8.95" duration="60.00" routeLength="640.96" waitingTime="0.00" waitingCount="0" stopTime="0.00" timeLoss="18.83" rerouteNo="1" devices="tripinfo_153 routing_153" vType="DEFAULT_VEHTYPE" speedFactor="0.93" vaporized=""/>
    <tripinfo id="199" depart="99.50" departLane="-133647781#2_0" departPos="5.10" departSpeed="0.00" departDelay="0.00" arrival="136.50" arrivalLane="-35605777#1_0" arrivalPos="51.69" arrivalSpeed="10.98" duration="37.00" routeLength="330.36" waitingTime="0.00" waitingCount="0" stopTime="0.00" timeLoss="5.62" rerouteNo="1" devices="tripinfo_199 routing_199" vType="DEFAULT_VEHTYPE" speedFactor="0.83" vaporized=""/>
    <tripinfo id="43" depart="21.50" departLane="1090570620#2_0" departPos="4.13" departSpeed="0.00" departDelay="0.00" arrival="141.50" arrivalLane="694563681#1_0" arrivalPos="9.17" arrivalSpeed="14.19" duration="120.00" routeLength="917.96" waitingTime="31.00" waitingCount="2" stopTime="0.00" timeLoss="53.94" rerouteNo="1" devices="tripinfo_43 routing_43" vType="DEFAULT_VEHTYPE" speedFactor="1.04" vaporized=""/>
    <tripinfo id="87" depart="43.50" departLane="1148717038#3_0" departPos="5.10" departSpeed="0.00" departDelay="0.00" arrival="141.50" arrivalLane="-28120427#0_0" arrivalPos="57.65" arrivalSpeed="14.35" duration="98.00" routeLength="1295.62" waitingTime="0.00" waitingCount="0" stopTime="0.00" timeLoss="23.96" rerouteNo="1" devices="tripinfo_87 routing_87" vType="DEFAULT_VEHTYPE" speedFactor="1.04" vaporized=""/>
    <tripinfo id="106" depart="53.00" departLane="-40696199#2_0" departPos="5.10" departSpeed="0.00" departDelay="0.00" arrival="142.00" arrivalLane="28120456#2_0" arrivalPos="32.14" arrivalSpeed="14.07" duration="89.00" routeLength="975.98" waitingTime="4.00" waitingCount="1" stopTime="0.00" timeLoss="30.31" rerouteNo="1" devices="tripinfo_106 routing_106" vType="DEFAULT_VEHTYPE" speedFactor="1.01" vaporized=""/>
    <tripinfo id="256" depart="128.00" departLane="1109599641_0" departPos="0.44" departSpeed="0.00" departDelay="0.00" arrival="143.50" arrivalLane="229976708#3_0" arrivalPos="36.33" arrivalSpeed="19.43" duration="15.50" routeLength="132.07" waitingTime="0.00" waitingCount="0" stopTime="0.00" timeLoss="7.36" rerouteNo="1" devices="tripinfo_256 routing_256" vType="DEFAULT_VEHTYPE" speedFactor="0.96" vaporized=""/>
    <tripinfo id="156" depart="78.00" departLane="-1042112410_0" departPos="0.20" departSpeed="0.00" departDelay="0.00" arrival="144.50" arrivalLane="661917532_0" arrivalPos="149.93" arrivalSpeed="2.97" duration="66.50" routeLength="165.08" waitingTime="3.00" waitingCount="1" stopTime="0.00" timeLoss="19.30" rerouteNo="0" devices="tripinfo_156 routing_156" vType="DEFAULT_VEHTYPE" speedFactor="1.18" vaporized=""/>
    <tripinfo id="97" depart="48.50" departLane="-27934864_0" departPos="5.10" departSpeed="0.00" departDelay="0.00" arrival="145.50" arrivalLane="695251938#3_0" arrivalPos="20.76" arrivalSpeed="12.05" duration="97.00" routeLength="458.16" waitingTime="34.50" waitingCount="3" stopTime="0.00" timeLoss="62.25" rerouteNo="1" devices="tripinfo_97 routing_97" vType="DEFAULT_VEHTYPE" speedFactor="0.91" vaporized=""/>
    <tripinfo id="154" depart="77.00" departLane="-692207400#2_0" departPos="5.10" departSpeed="0.00" departDelay="0.00" arrival="148.00" arrivalLane="1421955576#1_0" arrivalPos="20.79" arrivalSpeed="8.82" duration="71.00" routeLength="604.90" waitingTime="0.00" waitingCount="0" stopTime="0.00" timeLoss="7.74" rerouteNo="1" devices="tripinfo_154 routing_154" vType="DEFAULT_VEHTYPE" speedFactor="1.06" vaporized=""/>
    <tripinfo id="10" depart="5.00" departLane="-1387960816#3_0" departPos="5.10" departSpeed="0.00" departDelay="0.00" arrival="148.50" arrivalLane="-164040897#1_0" arrivalPos="77.39" arrivalSpeed="15.02" duration="143.50" routeLength="1880.82" waitingTime="1.50" waitingCount="1" stopTime="0.00" timeLoss="37.95" rerouteNo="1" devices="tripinfo_10 routing_10" vType="DEFAULT_VEHTYPE" speedFactor="1.09" vaporized=""/>
    <tripinfo id="53" depart="26.50" departLane="40696222_0" departPos="5.10" departSpeed="0.00" departDelay="0.00" arrival="149.50" arrivalLane="40696199#0_0" arrivalPos="135.38" arrivalSpeed="15.12" duration="123.00" routeLength="1408.27" waitingTime="15.00" waitingCount="2" stopTime="0.00" timeLoss="43.68" rerouteNo="1" devices="tripinfo_53 routing_53" vType="DEFAULT_VEHTYPE" speedFactor="1.10" vaporized=""/>
    <tripinfo id="161" depart="80.50" departLane="-40696199#0_0" departPos="5.10" departSpeed="0.00" departDelay="0.00" arrival="151.00" arrivalLane="40696205#1_0" arrivalPos="103.61" arrivalSpeed="14.53" duration="70.50" routeLength="757.75" waitingTime="1.00" waitingCount="1" stopTime="0.00" timeLoss="20.61" rerouteNo="1" devices="tripinfo_161 routing_161" vType="DEFAULT_VEHTYPE" speedFactor="1.08" vaporized=""/>
    <tripinfo id="253" depart="128.00" departLane="-310665116#0_0" departPos="5.10" departSpeed="0.00" departDelay="1.50" arrival="152.00" arrivalLane="40696212#0_0" arrivalPos="47.01" arrivalSpeed="13.14" duration="24.00" routeLength="220.17" waitingTime="0.00" waitingCount="0" stopTime="0.00" timeLoss="6.15" rerouteNo="1" devices="tripinfo_253 routing_253" vType="DEFAULT_VEHTYPE" speedFactor="0.98" vaporized=""/>
    <tripinfo id="211" depart="105.50" departLane="-696064753_0" departPos="5.10" departSpeed="0.00" departDelay="0.00" arrival="152.50" arrivalLane="28120439#7_0" arrivalPos="7.53" arrivalSpeed="8.01" duration="47.00" routeLength="450.13" waitingTime="0.00" waitingCount="0" stopTime="0.00" timeLoss="18.30" rerouteNo="1" devices="tripinfo_211 routing_211" vType="DEFAULT_VEHTYPE" speedFactor="1.04" vaporized=""/>
    <tripinfo id="40" depart="20.00" departLane="-1109599638_0" departPos="5.10" departSpeed="0.00" departDelay="0.00" arrival="153.00" arrivalLane="28103470_0" arrivalPos="121.28" arrivalSpeed="14.15" duration="133.00" routeLength="1037.84" waitingTime="30.50" waitingCount="1" stopTime="0.00" timeLoss="57.15" rerouteNo="1" devices="tripinfo_40 routing_40" vType="DEFAULT_VEHTYPE" speedFactor="1.03" vaporized=""/>
    <tripinfo id="206" depart="103.00" departLane="-726834057#0_0" departPos="5.10" departSpeed="0.00" departDelay="0.00" arrival="155.50" arrivalLane="59482112#2_0" arrivalPos="19.47" arrivalSpeed="10.57" duration="52.50" routeLength="558.21" waitingTime="0.00" waitingCount="0" stopTime="0.00" timeLoss="17.70" rerouteNo="1" devices="tripinfo_206 routing_206" vType="DEFAULT_VEHTYPE" speedFactor="1.00" vaporized=""/>
    <tripinfo id="200" depart="103.00" departLane="-310665594#1_0" departPos="5.10" departSpeed="0.00" departDelay="3.00" arrival="158.50" arrivalLane="-40696204#0_0" arrivalPos="100.64" arrivalSpeed="12.70" duration="55.50" routeLength="635.56" waitingTime="0.00" waitingCount="0" stopTime="0.00" timeLoss="11.29" rerouteNo="1" devices="tripinfo_200 routing_200" vType="DEFAULT_VEHTYPE" speedFactor="0.95" vaporized=""/>
    <tripinfo id="208" depart="104.00" departLane="-678335364#2_0" departPos="5.10" departSpeed="0.00" departDelay="0.00" arrival="160.50" arrivalLane="-1101690290_0" arrivalPos="44.05" arrivalSpeed="13.00" duration="56.50" routeLength="570.59" waitingTime="7.50" waitingCount="1" stopTime="0.00" timeLoss="25.37" rerouteNo="1" devices="tripinfo_208 routing_208" vType="DEFAULT_VEHTYPE" speedFactor="0.96" vaporized=""/>
    <tripinfo id="51" depart="25.50" departLane="-1030669035_0" departPos="5.10" departSpeed="0.00" departDelay="0.00" arrival="162.00" arrivalLane="-40696206#1_0" arrivalPos="24.30" arrivalSpeed="11.36" duration="136.50" routeLength="1333.25" waitingTime="31.00" waitingCount="2" stopTime="0.00" timeLoss="64.51" rerouteNo="1" devices="tripinfo_51 routing_51" vType="DEFAULT_VEHTYPE" speedFactor="1.17" vaporized=""/>
    <tripinfo id="248" depart="124.00" departLane="27935252#3_0" departPos="5.10" departSpeed="0.00" departDelay="0.00" arrival="162.50" arrivalLane="1101690290_0" arrivalPos="44.05" arrivalSpeed="15.14" duration="38.50" routeLength="399.18" waitingTime="0.00" waitingCount="0" stopTime="0.00" timeLoss="10.31" rerouteNo="1" devices="tripinfo_248 routing_248" vType="DEFAULT_VEHTYPE" speedFactor="1.14" vaporized=""/>
    <tripinfo id="108" depart="54.00" departLane="97187758_0" departPos="5.10" departSpeed="0.00" departDelay="0.00" arrival="163.00" arrivalLane="886485940#3_0" arrivalPos="0.20" arrivalSpeed="4.29" duration="109.00" routeLength="1497.92" waitingTime="0.00" waitingCount="0" stopTime="0.00" timeLoss="21.88" rerouteNo="1" devices="tripinfo_108 routing_108" vType="DEFAULT_VEHTYPE" speedFactor="1.06" vaporized=""/>
    <tripinfo id="222" depart="114.00" departLane="-27994464#1_0" departPos="5.10" departSpeed="0.00" departDelay="3.00" arrival="165.50" arrivalLane="-40696212#0_0" arrivalPos="47.01" arrivalSpeed="11.34" duration="51.50" routeLength="518.29" waitingTime="0.00" waitingCount="0" stopTime="0.00" timeLoss="12.64" rerouteNo="1" devices="tripinfo_222 routing_222" vType="DEFAULT_VEHTYPE" speedFactor="0.84" vaporized=""/>
    <tripinfo id="267" depart="139.50" departLane="28120427#10_0" departPos="5.10" departSpeed="0.00" departDelay="6.00" arrival="166.00" arrivalLane="-40696220#0_0" arrivalPos="33.94" arrivalSpeed="11.13" duration="26.50" routeLength="243.03" waitingTime="0.00" waitingCount="0" stopTime="0.00" timeLoss="6.32" rerouteNo="1" devices="tripinfo_267 routing_267" vType="DEFAULT_VEHTYPE" speedFactor="0.92" vaporized=""/>