<?xml version="1.0" encoding="UTF-8"?>

<!-- generated on 2025-09-20 17:57:24 by Eclipse SUMO GUI Version 1.24.0
<sumoConfiguration xmlns:xsi="http://www.w3.org/2001/XMLSchema-instance" xsi:noNamespaceSchemaLocation="http://sumo.dlr.de/xsd/sumoConfiguration.xsd">

    <input>
        <net-file value="../Banglore_Silk_Junction_Map/osm.net.xml.gz"/>
        <route-files value="../Banglore_Silk_Junction_Map/osm_pt.rou.xml,../Banglore_Silk_Junction_Map/osm.passenger.trips.xml"/>
        <additional-files value="../Banglore_Silk_Junction_Map/osm.poly.xml.gz,../Banglore_Silk_Junction_Map/osm_stops.add.xml,../Banglore_Silk_Junction_Map/output.add.xml"/>
    </input>

    <output>
        <summary-output value="outputs/bangalore_after_ai_summary.xml"/>
        <tripinfo-output value="outputs/bangalore_after_ai_tripinfo.xml"/>
        <stop-output value="../Banglore_Silk_Junction_Map/stopinfos.xml"/>
        <statistic-output value="../Banglore_Silk_Junction_Map/stats.xml"/>
    </output>

    <processing>
        <ignore-route-errors value="true"/>
        <tls.actuated.jam-threshold value="30"/>
    </processing>

    <routing>
        <device.rerouting.adaptation-steps value="18"/>
        <device.rerouting.adaptation-interval value="10"/>
    </routing>

    <report>
        <verbose value="true"/>
        <duration-log.statistics value="true"/>
        <no-step-log value="true"/>
    </report>

    <traci_server>
        <remote-port value="8813"/>
    </traci_server>

    <gui_only>
        <gui-settings-file value="../Banglore_Silk_Junction_Map/osm.view.xml"/>
        <start value="true"/>
    </gui_only>

</sumoConfiguration>
-->

<tripinfos xmlns:xsi="http://www.w3.org/2001/XMLSchema-instance" xsi:noNamespaceSchemaLocation="http://sumo.dlr.de/xsd/tripinfo_file.xsd">
    <tripinfo id="veh36" depart="27.00" departLane="-290639793#10_0" departPos="5.10" departSpeed="0.00" departDelay="0.49" arrival="94.00" arrivalLane="-310665101#1_0" arrivalPos="13.94" arrivalSpeed="9.45" duration="67.00" routeLength="778.01" waitingTime="2.00" waitingCount="1" stopTime="0.00" timeLoss="22.12" rerouteNo="1" devices="tripinfo_veh36 routing_veh36" vType="veh_passenger" speedFactor="0.97" vaporized=""/>
    <tripinfo id="veh8" depart="6.00" departLane="310456181#0_0" departPos="5.10" departSpeed="0.00" departDelay="0.11" arrival="95.00" arrivalLane="-1101690261_0" arrivalPos="35.85" arrivalSpeed="12.32" duration="89.00" routeLength="848.76" waitingTime="0.00" waitingCount="0" stopTime="0.00" timeLoss="17.32" rerouteNo="1" devices="tripinfo_veh8 routing_veh8" vType="veh_passenger" speedFactor="0.94" vaporized=""/>
    <tripinfo id="veh25" depart="19.00" departLane="-147575198#3_0" departPos="5.10" departSpeed="0.00" departDelay="0.59" arrival="105.00" arrivalLane="309190304#0_0" arrivalPos="95.27" arrivalSpeed="10.92" duration="86.00" routeLength="771.75" waitingTime="0.00" waitingCount="0" stopTime="0.00" timeLoss="16.82" rerouteNo="1" devices="tripinfo_veh25 routing_veh25" vType="veh_passenger" speedFactor="0.87" vaporized=""/>
    <tripinfo id="veh92" depart="68.00" departLane="1165661287#0_0" departPos="5.10" departSpeed="0.00" departDelay="0.25" arrival="115.00" arrivalLane="291973715#2_0" arrivalPos="8.42" arrivalSpeed="10.39" duration="47.00" routeLength="596.54" waitingTime="0.00" waitingCount="0" stopTime="0.00" timeLoss="10.55" rerouteNo="1" devices="tripinfo_veh92 routing_veh92" vType="veh_passenger" speedFactor="0.83" vaporized=""/>
    <tripinfo id="veh6" depart="5.00" departLane="-1102833429_0" departPos="5.10" departSpeed="13.14" departDelay="0.58" arrival="116.00" arrivalLane="-28120400#7_0" arrivalPos="20.33" arrivalSpeed="8.94" duration="111.00" routeLength="1527.54" waitingTime="8.00" waitingCount="1" stopTime="0.00" timeLoss="32.70" rerouteNo="1" devices="tripinfo_veh6 routing_veh6" vType="veh_passenger" speedFactor="1.05" vaporized=""/>
    <tripinfo id="veh44" depart="33.00" departLane="799592387_0" departPos="5.10" departSpeed="14.49" departDelay="0.60" arrival="116.00" arrivalLane="558683371_0" arrivalPos="50.13" arrivalSpeed="14.04" duration="83.00" routeLength="836.24" waitingTime="0.00" waitingCount="0" stopTime="0.00" timeLoss="20.41" rerouteNo="1" devices="tripinfo_veh44 routing_veh44" vType="veh_passenger" speedFactor="1.04" vaporized=""/>
    <tripinfo id="veh2" depart="2.00" departLane="27935848#2_0" departPos="5.10" departSpeed="0.00" departDelay="0.53" arrival="123.00" arrivalLane="27936042#0_0" arrivalPos="119.83" arrivalSpeed="13.11" duration="121.00" routeLength="1403.32" waitingTime="2.00" waitingCount="1" stopTime="0.00" timeLoss="31.91" rerouteNo="1" devices="tripinfo_veh2 routing_veh2" vType="veh_passenger" speedFactor="1.01" vaporized=""/>
    <tripinfo id="veh42" depart="31.00" departLane="-1110211978_0" departPos="5.10" departSpeed="9.68" departDelay="0.07" arrival="125.00" arrivalLane="-81254203_0" arrivalPos="143.43" arrivalSpeed="14.58" duration="94.00" routeLength="1150.84" waitingTime="0.00" waitingCount="0" stopTime="0.00" timeLoss="21.51" rerouteNo="1" devices="tripinfo_veh42 routing_veh42" vType="veh_passenger" speedFactor="1.09" vaporized=""/>
    <tripinfo id="veh53" depart="40.00" departLane="128220170#2_0" departPos="5.10" departSpeed="0.00" departDelay="0.97" arrival="132.00" arrivalLane="-27934854#9_0" arrivalPos="121.98" arrivalSpeed="23.60" duration="92.00" routeLength="1266.98" waitingTime="0.00" waitingCount="0" stopTime="0.00" timeLoss="29.21" rerouteNo="1" devices="tripinfo_veh53 routing_veh53" vType="veh_passenger" speedFactor="1.10" vaporized=""/>
    <tripinfo id="veh95" depart="70.00" departLane="1110178624#1_1" departPos="0.20" departSpeed="0.00" departDelay="0.04" arrival="135.00" arrivalLane="310456163_0" arrivalPos="33.14" arrivalSpeed="12.51" duration="65.00" routeLength="637.22" waitingTime="0.00" waitingCount="0" stopTime="0.00" timeLoss="17.40" rerouteNo="1" devices="tripinfo_veh95 routing_veh95" vType="veh_passenger" speedFactor="1.06" vaporized=""/>
    <tripinfo id="veh55" depart="41.00" departLane="-1101696108_0" departPos="5.10" departSpeed="9.90" departDelay="0.50" arrival="137.00" arrivalLane="694981019_0" arrivalPos="93.82" arrivalSpeed="13.39" duration="96.00" routeLength="1199.37" waitingTime="0.00" waitingCount="0" stopTime="0.00" timeLoss="19.51" rerouteNo="1" devices="tripinfo_veh55 routing_veh55" vType="veh_passenger" speedFactor="1.00" vaporized=""/>
    <tripinfo id="veh102" depart="76.00" departLane="-694302718_0" departPos="5.10" departSpeed="13.45" departDelay="0.89" arrival="139.00" arrivalLane="1427462048_0" arrivalPos="23.30" arrivalSpeed="12.58" duration="63.00" routeLength="650.41" waitingTime="0.00" waitingCount="0" stopTime="0.00" timeLoss="17.17" rerouteNo="1" devices="tripinfo_veh102 routing_veh102" vType="veh_passenger" speedFactor="0.97" vaporized=""/>
    <tripinfo id="veh30" depart="23.00" departLane="-27936029#0_0" departPos="5.10" departSpeed="0.00" departDelay="0.91" arrival="142.00" arrivalLane="-1183377618_0" arrivalPos="34.73" arrivalSpeed="12.25" duration="119.00" routeLength="1330.64" waitingTime="0.00" waitingCount="0" stopTime="0.00" timeLoss="32.55" rerouteNo="1" devices="tripinfo_veh30 routing_veh30" vType="veh_passenger" speedFactor="1.18" vaporized=""/>
    <tripinfo id="veh61" depart="45.00" departLane="-794381851_0" departPos="5.10" departSpeed="15.55" departDelay="0.08" arrival="143.00" arrivalLane="1335927786#3_0" arrivalPos="54.31" arrivalSpeed="14.39" duration="98.00" routeLength="1255.77" waitingTime="0.00" waitingCount="0" stopTime="0.00" timeLoss="15.71" rerouteNo="1" devices="tripinfo_veh61 routing_veh61" vType="veh_passenger" speedFactor="1.12" vaporized=""/>
    <tripinfo id="veh14" depart="11.00" departLane="1109895159_0" departPos="5.10" departSpeed="13.67" departDelay="0.69" arrival="146.00" arrivalLane="800240405_0" arrivalPos="24.61" arrivalSpeed="10.88" duration="135.00" routeLength="1473.04" waitingTime="16.00" waitingCount="1" stopTime="0.00" timeLoss="49.04" rerouteNo="1" devices="tripinfo_veh14 routing_veh14" vType="veh_passenger" speedFactor="0.99" vaporized=""/>
    <tripinfo id="veh1" depart="1.00" departLane="-291973730#6_0" departPos="5.10" departSpeed="0.00" departDelay="0.26" arrival="149.00" arrivalLane="-309190308_0" arrivalPos="94.17" arrivalSpeed="11.85" duration="148.00" routeLength="1507.13" waitingTime="18.00" waitingCount="2" stopTime="0.00" timeLoss="53.10" rerouteNo="1" devices="tripinfo_veh1 routing_veh1" vType="veh_passenger" speedFactor="0.94" vaporized=""/>
    <tripinfo id="veh41" depart="31.00" departLane="309190306_0" departPos="5.10" departSpeed="13.29" departDelay="0.81" arrival="154.00" arrivalLane="1102833433_0" arrivalPos="25.43" arrivalSpeed="12.74" duration="123.00" routeLength="1893.00" waitingTime="0.00" waitingCount="0" stopTime="0.00" timeLoss="15.76" rerouteNo="1" devices="tripinfo_veh41 routing_veh41" vType="veh_passenger" speedFactor="0.96" vaporized=""/>
    <tripinfo id="veh85" depart="63.00" departLane="995122863_0" departPos="5.10" departSpeed="9.39" departDelay="0.41" arrival="165.00" arrivalLane="40696194#1_0" arrivalPos="22.71" arrivalSpeed="12.70" duration="102.00" routeLength="1318.47" waitingTime="0.00" waitingCount="0" stopTime="0.00" timeLoss="27.32" rerouteNo="1" devices="tripinfo_veh85 routing_veh85" vType="veh_passenger" speedFactor="0.98" vaporized=""/>
    <tripinfo id="veh51" depart="38.00" departLane="631197944#0_2" departPos="5.10" departSpeed="0.00" departDelay="0.44" arrival="166.00" arrivalLane="610166550#10_1" arrivalPos="55.61" arrivalSpeed="11.76" duration="128.00" routeLength="2296.20" waitingTime="4.00" waitingCount="1" stopTime="0.00" timeLoss="34.67" rerouteNo="1" devices="tripinfo_veh51 routing_veh51" vType="veh_passenger" speedFactor="1.17" vaporized=""/>
    <tripinfo id="veh33" depart="25.00" departLane="40696206#0_0" departPos="5.10" departSpeed="0.00" departDelay="0.70" arrival="167.00" arrivalLane="-59482034#1_0" arrivalPos="184.34" arrivalSpeed="6.39" duration="142.00" routeLength="1549.46" waitingTime="0.00" waitingCount="0" stopTime="0.00" timeLoss="27.26" rerouteNo="1" devices="tripinfo_veh33 routing_veh33" vType="veh_passenger" speedFactor="1.17" vaporized=""/>
    <tripinfo id="veh140" depart="104.00" departLane="-310667984#1_0" departPos="5.10" departSpeed="15.47" departDelay="0.91" arrival="167.00" arrivalLane="694981025_0" arrivalPos="59.97" arrivalSpeed="15.46" duration="63.00" routeLength="790.61" waitingTime="0.00" waitingCount="0" stopTime="0.00" timeLoss="12.01" rerouteNo="1" devices="tripinfo_veh140 routing_veh140" vType="veh_passenger" speedFactor="1.11" vaporized=""/>
    <tripinfo id="veh175" depart="129.00" departLane="-778898123_0" departPos="5.10" departSpeed="12.77" departDelay="0.13" arrival="167.00" arrivalLane="694302721_0" arrivalPos="37.26" arrivalSpeed="11.86" duration="38.00" routeLength="436.57" waitingTime="0.00" waitingCount="0" stopTime="0.00" timeLoss="9.22" rerouteNo="1" devices="tripinfo_veh175 routing_veh175" vType="veh_passenger" speedFactor="0.92" vaporized=""/>
    <tripinfo id="veh19" depart="14.00" departLane="-1185468746_0" departPos="5.10" departSpeed="16.09" departDelay="0.01" arrival="168.00" arrivalLane="-309618845#9_0" arrivalPos="20.64" arrivalSpeed="11.95" duration="154.00" routeLength="2149.60" waitingTime="0.00" waitingCount="0" stopTime="0.00" timeLoss="25.80" rerouteNo="1" devices="tripinfo_veh19 routing_veh19" vType="veh_passenger" speedFactor="1.16" vaporized=""/>
    <tripinfo id="veh147" depart="109.00" departLane="309191381_0" departPos="5.10" departSpeed="0.00" departDelay="0.75" arrival="169.00" arrivalLane="-309193964#0_0" arrivalPos="23.26" arrivalSpeed="11.80" duration="60.00" routeLength="840.22" waitingTime="0.00" waitingCount="0" stopTime="0.00" timeLoss="14.00" rerouteNo="1" devices="tripinfo_veh147 routing_veh147" vType="veh_passenger" speedFactor="1.00" vaporized=""/>
    <tripinfo id="veh139" depart="103.00" departLane="-1102829162_0" departPos="5.10" departSpeed="11.69" departDelay="0.64" arrival="171.00" arrivalLane="309194360_0" arrivalPos="41.73" arrivalSpeed="12.85" duration="68.00" routeLength="701.96" waitingTime="0.00" waitingCount="0" stopTime="0.00" timeLoss="13.08" rerouteNo="1" devices="tripinfo_veh139 routing_veh139" vType="veh_passenger" speedFactor="0.95" vaporized=""/>
    <tripinfo id="veh134" depart="99.00" departLane="-28120400#12_0" departPos="5.10" departSpeed="0.00" departDelay="0.32" arrival="172.00" arrivalLane="-147561896#0_0" arrivalPos="55.79" arrivalSpeed="16.25" duration="73.00" routeLength="1262.81" waitingTime="0.00" waitingCount="0" stopTime="0.00" timeLoss="27.01" rerouteNo="1" devices="tripinfo_veh134 routing_veh134" vType="veh_passenger" speedFactor="1.23" vaporized=""/>
    <tripinfo id="veh31" depart="23.00" departLane="-310665081#0_0" departPos="5.10" departSpeed="0.00" departDelay="0.17" arrival="182.00" arrivalLane="-32267142#1_0" arrivalPos="37.03" arrivalSpeed="25.19" duration="159.00" routeLength="2466.05" waitingTime="22.00" waitingCount="3" stopTime="0.00" timeLoss="63.72" rerouteNo="1" devices="tripinfo_veh31 routing_veh31" vType="veh_passenger" speedFactor="1.15" vaporized=""/>
    <tripinfo id="veh4" depart="3.00" departLane="-694302725_0" departPos="5.10" departSpeed="14.31" departDelay="0.05" arrival="185.00" arrivalLane="-116061945#2_0" arrivalPos="18.43" arrivalSpeed="8.43" duration="182.00" routeLength="2400.35" waitingTime="0.00" waitingCount="0" stopTime="0.00" timeLoss="33.02" rerouteNo="1" devices="tripinfo_veh4 routing_veh4" vType="veh_passenger" speedFactor="1.03" vaporized=""/>
    <tripinfo id="veh43" depart="32.00" departLane="97187758_0" departPos="5.10" departSpeed="0.00" departDelay="0.34" arrival="188.00" arrivalLane="1254626825_0" arrivalPos="2.53" arrivalSpeed="10.25" duration="156.00" routeLength="2383.28" waitingTime="0.00" waitingCount="0" stopTime="0.00" timeLoss="35.42" rerouteNo="1" devices="tripinfo_veh43 routing_veh43" vType="veh_passenger" speedFactor="1.04" vaporized=""/>
    <tripinfo id="veh81" depart="60.00" departLane="-694302725_0" departPos="5.10" departSpeed="13.86" departDelay="0.35" arrival="190.00" arrivalLane="-383732626_0" arrivalPos="47.48" arrivalSpeed="1.52" duration="130.00" routeLength="1300.05" waitingTime="0.00" waitingCount="0" stopTime="0.00" timeLoss="31.20" rerouteNo="1" devices="tripinfo_veh81 routing_veh81" vType="veh_passenger" speedFactor="1.00" vaporized=""/>
    <tripinfo id="veh100" depart="74.00" departLane="-27994380#15_0" departPos="5.10" departSpeed="0.00" departDelay="0.36" arrival="191.00" arrivalLane="-222798629#0_0" arrivalPos="4.82" arrivalSpeed="8.48" duration="117.00" routeLength="1246.27" waitingTime="0.00" waitingCount="0" stopTime="0.00" timeLoss="37.92" rerouteNo="1" devices="tripinfo_veh100 routing_veh100" vType="veh_passenger" speedFactor="1.06" vaporized=""/>
    <tripinfo id="veh45" depart="34.00" departLane="-1101675540_0" departPos="5.10" departSpeed="2.70" departDelay="0.86" arrival="196.00" arrivalLane="291973721#14_0" arrivalPos="8.46" arrivalSpeed="23.18" duration="162.00" routeLength="2573.32" waitingTime="0.00" waitingCount="0" stopTime="0.00" timeLoss="36.66" rerouteNo="1" devices="tripinfo_veh45 routing_veh45" vType="veh_passenger" speedFactor="1.09" vaporized=""/>
    <tripinfo id="veh15" depart="12.00" departLane="-40696212#0_0" departPos="5.10" departSpeed="0.00" departDelay="0.95" arrival="198.00" arrivalLane="133748880#4_0" arrivalPos="20.72" arrivalSpeed="12.08" duration="186.00" routeLength="2064.40" waitingTime="6.00" waitingCount="1" stopTime="0.00" timeLoss="40.31" rerouteNo="1" devices="tripinfo_veh15 routing_veh15" vType="veh_passenger" speedFactor="0.93" vaporized=""/>
    <tripinfo id="veh161" depart="119.00" departLane="27935979#5_0" departPos="5.10" departSpeed="0.00" departDelay="0.44" arrival="198.00" arrivalLane="27935900#1_0" arrivalPos="35.30" arrivalSpeed="14.22" duration="79.00" routeLength="823.61" waitingTime="0.00" waitingCount="0" stopTime="0.00" timeLoss="17.38" rerouteNo="1" devices="tripinfo_veh161 routing_veh161" vType="veh_passenger" speedFactor="1.08" vaporized=""/>
    <tripinfo id="veh12" depart="9.00" departLane="334652524#2_0" departPos="5.10" departSpeed="0.00" departDelay="0.16" arrival="201.00" arrivalLane="148210029_0" arrivalPos="118.09" arrivalSpeed="14.10" duration="192.00" routeLength="2487.10" waitingTime="11.00" waitingCount="1" stopTime="0.00" timeLoss="43.78" rerouteNo="1" devices="tripinfo_veh12 routing_veh12" vType="veh_passenger" speedFactor="1.05" vaporized=""/>
    <tripinfo id="veh73" depart="54.00" departLane="-27935459_0" departPos="5.10" departSpeed="14.66" departDelay="0.24" arrival="201.00" arrivalLane="-237089966#0_0" arrivalPos="70.97" arrivalSpeed="14.51" duration="147.00" routeLength="2073.18" waitingTime="0.00" waitingCount="0" stopTime="0.00" timeLoss="29.38" rerouteNo="1" devices="tripinfo_veh73 routing_veh73" vType="veh_passenger" speedFactor="1.06" vaporized=""/>
    <tripinfo id="veh77" depart="57.00" departLane="27935419#1_0" departPos="5.10" departSpeed="0.00" departDelay="0.30" arrival="204.00" arrivalLane="27935999#1_0" arrivalPos="94.19" arrivalSpeed="12.74" duration="147.00" routeLength="1678.81" waitingTime="0.00" waitingCount="0" stopTime="0.00" timeLoss="27.14" rerouteNo="1" devices="tripinfo_veh77 routing_veh77" vType="veh_passenger" speedFactor="0.98" vaporized=""/>
    <tripinfo id="veh150" depart="111.00" departLane="794634835#0_3" departPos="5.10" departSpeed="0.00" departDelay="0.54" arrival="206.00" arrivalLane="-393308178_0" arrivalPos="45.34" arrivalSpeed="12.72" duration="95.00" routeLength="1113.90" waitingTime="0.00" waitingCount="0" stopTime="0.00" timeLoss="14.85" rerouteNo="1" devices="tripinfo_veh150 routing_veh150" vType="veh_passenger" speedFactor="0.96" vaporized=""/>
    <tripinfo id="veh46" depart="34.00" departLane="229976708#5_0" departPos="5.10" departSpeed="0.00" departDelay="0.13" arrival="207.00" arrivalLane="128220208#4_0" arrivalPos="21.25" arrivalSpeed="13.85" duration="173.00" routeLength="2427.67" waitingTime="0.00" waitingCount="0" stopTime="0.00" timeLoss="34.37" rerouteNo="1" devices="tripinfo_veh46 routing_veh46" vType="veh_passenger" speedFactor="1.00" vaporized=""/>
    <tripinfo id="veh86" depart="64.00" departLane="343683208#3_0" departPos="1.81" departSpeed="0.00" departDelay="0.67" arrival="207.00" arrivalLane="-27935818#1_0" arrivalPos="79.08" arrivalSpeed="13.58" duration="143.00" routeLength="1254.31" waitingTime="17.00" waitingCount="1" stopTime="0.00" timeLoss="49.39" rerouteNo="1" devices="tripinfo_veh86 routing_veh86" vType="veh_passenger" speedFactor="1.00" vaporized=""/>
    <tripinfo id="veh149" depart="110.00" departLane="-310665124_0" departPos="5.10" departSpeed="14.44" departDelay="0.28" arrival="207.00" arrivalLane="559786861#2_0" arrivalPos="92.00" arrivalSpeed="22.17" duration="97.00" routeLength="1577.38" waitingTime="0.00" waitingCount="0" stopTime="0.00" timeLoss="23.67" rerouteNo="1" devices="tripinfo_veh149 routing_veh149" vType="veh_passenger" speedFactor="1.04" vaporized=""/>
    <tripinfo id="veh26" depart="20.00" departLane="-147575144#1_0" departPos="5.10" departSpeed="0.00" departDelay="0.85" arrival="209.00" arrivalLane="-81254189#9_0" arrivalPos="10.09" arrivalSpeed="12.44" duration="189.00" routeLength="2458.84" waitingTime="13.00" waitingCount="1" stopTime="0.00" timeLoss="54.84" rerouteNo="1" devices="tripinfo_veh26 routing_veh26" vType="veh_passenger" speedFactor="0.92" vaporized=""/>
    <tripinfo id="veh29" depart="22.00" departLane="32267142#0_0" departPos="5.10" departSpeed="0.00" departDelay="0.64" arrival="210.00" arrivalLane="310665112#2_0" arrivalPos="27.23" arrivalSpeed="12.01" duration="188.00" routeLength="2617.59" waitingTime="11.00" waitingCount="2" stopTime="0.00" timeLoss="55.43" rerouteNo="1" devices="tripinfo_veh29 routing_veh29" vType="veh_passenger" speedFactor="0.93" vaporized=""/>
    <tripinfo id="veh49" depart="37.00" departLane="40696203#0_0" departPos="5.10" departSpeed="0.00" departDelay="0.92" arrival="215.00" arrivalLane="-32266753#3_0" arrivalPos="12.17" arrivalSpeed="11.54" duration="178.00" routeLength="1988.24" waitingTime="14.00" waitingCount="2" stopTime="0.00" timeLoss="59.45" rerouteNo="1" devices="tripinfo_veh49 routing_veh49" vType="veh_passenger" speedFactor="0.85" vaporized=""/>
    <tripinfo id="veh56" depart="42.00" departLane="40696214#0_0" departPos="5.10" departSpeed="0.00" departDelay="0.76" arrival="217.00" arrivalLane="40693543#1_0" arrivalPos="41.89" arrivalSpeed="12.03" duration="175.00" routeLength="1907.42" waitingTime="11.00" waitingCount="2" stopTime="0.00" timeLoss="57.96" rerouteNo="1" devices="tripinfo_veh56 routing_veh56" vType="veh_passenger" speedFactor="0.90" vaporized=""/>
    <tripinfo id="veh54" depart="40.00" departLane="290638884#0_0" departPos="5.10" departSpeed="0.00" departDelay="0.23" arrival="218.00" arrivalLane="125862470#1_0" arrivalPos="92.77" arrivalSpeed="13.89" duration="178.00" routeLength="2128.00" waitingTime="26.00" waitingCount="2" stopTime="0.00" timeLoss="73.22" rerouteNo="1" devices="tripinfo_veh54 routing_veh54" vType="veh_passenger" speedFactor="1.00" vaporized=""/>
    <tripinfo id="veh148" depart="109.00" departLane="-1102829129_0" departPos="5.10" departSpeed="13.43" departDelay="0.01" arrival="218.00" arrivalLane="-28103494#0_0" arrivalPos="29.35" arrivalSpeed="11.28" duration="109.00" routeLength="1480.95" waitingTime="1.00" waitingCount="1" stopTime="0.00" timeLoss="32.80" rerouteNo="1" devices="tripinfo_veh148 routing_veh148" vType="veh_passenger" speedFactor="0.97" vaporized=""/>
    <tripinfo id="veh187" depart="138.00" departLane="27994380#20_0" departPos="5.10" departSpeed="0.00" departDelay="0.29" arrival="219.00" arrivalLane="310665088_0" arrivalPos="68.26" arrivalSpeed="11.66" duration="81.00" routeLength="625.67" waitingTime="28.00" waitingCount="1" stopTime="0.00" timeLoss="47.74" rerouteNo="1" devices="tripinfo_veh187 routing_veh187" vType="veh_passenger" speedFactor="0.89" vaporized=""/>
    <tripinfo id="veh153" depart="113.00" departLane="799578802_0" departPos="5.10" departSpeed="12.88" departDelay="0.33" arrival="220.00" arrivalLane="-27936036#2_0" arrivalPos="48.70" arrivalSpeed="11.92" duration="107.00" routeLength="1150.83" waitingTime="1.00" waitingCount="1" stopTime="0.00" timeLoss="31.16" rerouteNo="1" devices="tripinfo_veh153 routing_veh153" vType="veh_passenger" speedFactor="0.93" vaporized=""/>
    <tripinfo id="veh110" depart="81.00" departLane="-116061945#1_0" departPos="5.10" departSpeed="0.00" departDelay="0.00" arrival="221.00" arrivalLane="-290639912#4_0" arrivalPos="55.48" arrivalSpeed="16.42" duration="140.00" routeLength="1522.29" waitingTime="11.00" waitingCount="2" stopTime="0.00" timeLoss="54.07" rerouteNo="1" devices="tripinfo_veh110 routing_veh110" vType="veh_passenger" speedFactor="0.93" vaporized=""/>
    <tripinfo id="veh58" depart="43.00" departLane="-1196120540_0" departPos="5.10" departSpeed="12.80" departDelay="0.29" arrival="224.00" arrivalLane="1196120512#0_1" arrivalPos="53.87" arrivalSpeed="11.04" duration="181.00" routeLength="2787.80" waitingTime="0.00" waitingCount="0" stopTime="0.00" timeLoss="29.40" rerouteNo="1" devices="tripinfo_veh58 routing_veh58" vType="veh_passenger" speedFactor="1.02" vaporized=""/>
    <tripinfo id="veh0" depart="0.00" departLane="136017975#6_0" departPos="5.10" departSpeed="0.00" departDelay="0.00" arrival="225.00" arrivalLane="-112462015#1_0" arrivalPos="16.44" arrivalSpeed="10.55" duration="225.00" routeLength="2265.18" waitingTime="14.00" waitingCount="1" stopTime="0.00" timeLoss="46.17" rerouteNo="1" devices="tripinfo_veh0 routing_veh0" vType="veh_passenger" speedFactor="1.06" vaporized=""/>
    <tripinfo id="veh135" depart="100.00" departLane="290638884#9_0" departPos="5.10" departSpeed="0.00" departDelay="0.59" arrival="226.00" arrivalLane="660092808_0" arrivalPos="21.70" arrivalSpeed="11.63" duration="126.00" routeLength="1738.34" waitingTime="9.00" waitingCount="1" stopTime="0.00" timeLoss="35.47" rerouteNo="1" devices="tripinfo_veh135 routing_veh135" vType="veh_passenger" speedFactor="1.01" vaporized=""/>
    <tripinfo id="veh38" depart="28.00" departLane="123624213#3_0" departPos="0.20" departSpeed="0.00" departDelay="0.02" arrival="228.00" arrivalLane="694302715_0" arrivalPos="72.92" arrivalSpeed="14.97" duration="200.00" routeLength="3804.24" waitingTime="3.00" waitingCount="1" stopTime="0.00" timeLoss="50.72" rerouteNo="1" devices="tripinfo_veh38 routing_veh38" vType="veh_passenger" speedFactor="1.10" vaporized=""/>
    <tripinfo id="veh48" depart="36.00" departLane="-694981037_0" departPos="5.10" departSpeed="10.53" departDelay="0.65" arrival="228.00" arrivalLane="744806547_0" arrivalPos="33.55" arrivalSpeed="11.93" duration="192.00" routeLength="2355.38" waitingTime="0.00" waitingCount="0" stopTime="0.00" timeLoss="24.64" rerouteNo="1" devices="tripinfo_veh48 routing_veh48" vType="veh_passenger" speedFactor="0.88" vaporized=""/>
    <tripinfo id="veh87" depart="65.00" departLane="-800240405_0" departPos="5.10" departSpeed="14.48" departDelay="0.93" arrival="231.00" arrivalLane="-291228867_0" arrivalPos="21.98" arrivalSpeed="13.55" duration="166.00" routeLength="2152.89" waitingTime="12.00" waitingCount="1" stopTime="0.00" timeLoss="54.51" rerouteNo="1" devices="tripinfo_veh87 routing_veh87" vType="veh_passenger" speedFactor="1.04" vaporized=""/>
    <tripinfo id="veh20" depart="15.00" departLane="-1236087679#1_0" departPos="0.20" departSpeed="0.00" departDelay="0.27" arrival="232.00" arrivalLane="-38098070#1_0" arrivalPos="141.48" arrivalSpeed="13.38" duration="217.00" routeLength="2464.39" waitingTime="0.00" waitingCount="0" stopTime="0.00" timeLoss="37.19" rerouteNo="1" devices="tripinfo_veh20 routing_veh20" vType="veh_passenger" speedFactor="1.02" vaporized=""/>
    <tripinfo id="veh80" depart="59.00" departLane="40693500_0" departPos="5.10" departSpeed="14.37" departDelay="0.09" arrival="232.00" arrivalLane="-310665112#0_0" arrivalPos="24.02" arrivalSpeed="13.66" duration="173.00" routeLength="2474.54" waitingTime="4.00" waitingCount="2" stopTime="0.00" timeLoss="42.26" rerouteNo="1" devices="tripinfo_veh80 routing_veh80" vType="veh_passenger" speedFactor="1.03" vaporized=""/>
    <tripinfo id="veh21" depart="16.00" departLane="1350362144#9_0" departPos="5.10" departSpeed="0.00" departDelay="0.54" arrival="234.00" arrivalLane="-799715252_0" arrivalPos="29.94" arrivalSpeed="12.12" duration="218.00" routeLength="3119.17" waitingTime="0.00" waitingCount="0" stopTime="0.00" timeLoss="29.23" rerouteNo="1" devices="tripinfo_veh21 routing_veh21" vType="veh_passenger" speedFactor="1.01" vaporized=""/>
    <tripinfo id="veh52" depart="39.00" departLane="-310456170_0" departPos="5.10" departSpeed="14.12" departDelay="0.71" arrival="235.00" arrivalLane="24490731#5_0" arrivalPos="20.28" arrivalSpeed="13.51" duration="196.00" routeLength="2295.96" waitingTime="15.00" waitingCount="2" stopTime="0.00" timeLoss="52.54" rerouteNo="1" devices="tripinfo_veh52 routing_veh52" vType="veh_passenger" speedFactor="1.02" vaporized=""/>
    <tripinfo id="veh10" depart="8.00" departLane="-32266743#1_0" departPos="5.10" departSpeed="0.00" departDelay="0.64" arrival="236.00" arrivalLane="-27935002#1_0" arrivalPos="81.52" arrivalSpeed="14.33" duration="228.00" routeLength="3380.88" waitingTime="3.00" waitingCount="1" stopTime="0.00" timeLoss="44.48" rerouteNo="1" devices="tripinfo_veh10 routing_veh10" vType="veh_passenger" speedFactor="1.09" vaporized=""/>
    <tripinfo id="veh64" depart="48.00" departLane="-27934512#0_0" departPos="5.10" departSpeed="0.00" departDelay="0.87" arrival="244.00" arrivalLane="-558743551#2_0" arrivalPos="11.38" arrivalSpeed="6.83" duration="196.00" routeLength="1911.76" waitingTime="0.00" waitingCount="0" stopTime="0.00" timeLoss="35.68" rerouteNo="1" devices="tripinfo_veh64 routing_veh64" vType="veh_passenger" speedFactor="0.94" vaporized=""/>
    <tripinfo id="veh88" depart="65.00" departLane="-40696212#2_0" departPos="5.10" departSpeed="13.99" departDelay="0.20" arrival="247.00" arrivalLane="81254189#8_0" arrivalPos="9.01" arrivalSpeed="13.54" duration="182.00" routeLength="2529.51" waitingTime="8.00" waitingCount="2" stopTime="0.00" timeLoss="54.78" rerouteNo="1" devices="tripinfo_veh88 routing_veh88" vType="veh_passenger" speedFactor="1.01" vaporized=""/>
    <tripinfo id="veh91" depart="68.00" departLane="744561216#3_0" departPos="5.10" departSpeed="0.00" departDelay="0.99" arrival="247.00" arrivalLane="970276328_0" arrivalPos="32.12" arrivalSpeed="11.17" duration="179.00" routeLength="2003.20" waitingTime="0.00" waitingCount="0" stopTime="0.00" timeLoss="24.70" rerouteNo="1" devices="tripinfo_veh91 routing_veh91" vType="veh_passenger" speedFactor="0.89" vaporized=""/>
    <tripinfo id="veh158" depart="117.00" departLane="-28120439#10_0" departPos="5.10" departSpeed="0.00" departDelay="0.65" arrival="247.00" arrivalLane="28187982#8_0" arrivalPos="6.95" arrivalSpeed="12.52" duration="130.00" routeLength="1438.20" waitingTime="0.00" waitingCount="0" stopTime="0.00" timeLoss="28.67" rerouteNo="1" devices="tripinfo_veh158 routing_veh158" vType="veh_passenger" speedFactor="0.91" vaporized=""/>
    <tripinfo id="veh72" depart="54.00" departLane="-27994446#1_0" departPos="5.10" departSpeed="0.00" departDelay="0.98" arrival="248.00" arrivalLane="27935889#0_0" arrivalPos="73.95" arrivalSpeed="12.86" duration="194.00" routeLength="2582.42" waitingTime="0.00" waitingCount="0" stopTime="0.00" timeLoss="30.97" rerouteNo="1" devices="tripinfo_veh72 routing_veh72" vType="veh_passenger" speedFactor="0.94" vaporized=""/>