<?xml version="1.0" encoding="UTF-8"?>

<!-- generated on 2025-09-21 01:17:36 by Eclipse SUMO GUI Version 1.24.0
<sumoConfiguration xmlns:xsi="http://www.w3.org/2001/XMLSchema-instance" xsi:noNamespaceSchemaLocation="http://sumo.dlr.de/xsd/sumoConfiguration.xsd">

    <input>
        <net-file value="../Banglore_Silk_Junction/osm.net.xml.gz"/>
        <route-files value="../Banglore_Silk_Junction/osm.routes.xml"/>
        <additional-files value="../Banglore_Silk_Junction/osm.poly.xml.gz,../Banglore_Silk_Junction/output.add.xml"/>
    </input>

    <output>
        <summary-output value="outputs/bangalore_before_ai_summary.xml"/>
        <tripinfo-output value="outputs/bangalore_before_ai_tripinfo.xml"/>
        <statistic-output value="../Banglore_Silk_Junction/stats.xml"/>
    </output>

    <processing>
        <ignore-route-errors value="true"/>
        <tls.actuated.jam-threshold value="30"/>
    </processing>

    <routing>
        <device.rerouting.adaptation-steps value="18"/>
        <device.rerouting.adaptation-interval value="10"/>
    </routing>

    <report>
        <verbose value="true"/>
        <duration-log.statistics value="true"/>
        <no-step-log value="true"/>
    </report>

    <traci_server>
        <remote-port value="8813"/>
    </traci_server>

    <gui_only>
        <gui-settings-file value="../Banglore_Silk_Junction/osm.view.xml"/>
        <start value="true"/>
    </gui_only>

</sumoConfiguration>
-->

<tripinfos xmlns:xsi="http://www.w3.org/2001/XMLSchema-instance" xsi:noNamespaceSchemaLocation="http://sumo.dlr.de/xsd/tripinfo_file.xsd">
    <tripinfo id="7" depart="4.00" departLane="32267053#2_0" departPos="3.35" departSpeed="0.00" departDelay="0.50" arrival="27.00" arrivalLane="-1109597642_0" arrivalPos="34.75" arrivalSpeed="11.81" duration="23.00" routeLength="174.27" waitingTime="0.00" waitingCount="0" stopTime="0.00" timeLoss="6.38" rerouteNo="1" devices="tripinfo_7 routing_7" vType="DEFAULT_VEHTYPE" speedFactor="0.89" vaporized=""/>
    <tripinfo id="21" depart="11.00" departLane="-310665114_0" departPos="5.10" departSpeed="0.00" departDelay="0.50" arrival="47.00" arrivalLane="692909359#1_0" arrivalPos="37.30" arrivalSpeed="13.38" duration="36.00" routeLength="346.50" waitingTime="0.00" waitingCount="0" stopTime="0.00" timeLoss="9.07" rerouteNo="1" devices="tripinfo_21 routing_21" vType="DEFAULT_VEHTYPE" speedFactor="1.01" vaporized=""/>
    <tripinfo id="22" depart="11.00" departLane="243553548#1_0" departPos="5.10" departSpeed="0.00" departDelay="0.00" arrival="50.00" arrivalLane="229976708#2_0" arrivalPos="37.19" arrivalSpeed="13.72" duration="39.00" routeLength="421.15" waitingTime="0.00" waitingCount="0" stopTime="0.00" timeLoss="13.77" rerouteNo="1" devices="tripinfo_22 routing_22" vType="DEFAULT_VEHTYPE" speedFactor="0.97" vaporized=""/>
    <tripinfo id="65" depart="33.00" departLane="-28120427#7_0" departPos="5.10" departSpeed="0.00" departDelay="0.50" arrival="52.00" arrivalLane="-28120427#8_0" arrivalPos="3.52" arrivalSpeed="4.81" duration="19.00" routeLength="107.33" waitingTime="0.00" waitingCount="0" stopTime="0.00" timeLoss="8.05" rerouteNo="1" devices="tripinfo_65 routing_65" vType="DEFAULT_VEHTYPE" speedFactor="0.88" vaporized=""/>
    <tripinfo id="4" depart="2.00" departLane="-1110221920_0" departPos="5.10" departSpeed="0.00" departDelay="0.00" arrival="53.00" arrivalLane="-27994446#4_0" arrivalPos="45.15" arrivalSpeed="13.61" duration="51.00" routeLength="575.22" waitingTime="0.00" waitingCount="0" stopTime="0.00" timeLoss="12.40" rerouteNo="1" devices="tripinfo_4 routing_4" vType="DEFAULT_VEHTYPE" speedFactor="1.03" vaporized=""/>
    <tripinfo id="63" depart="32.00" departLane="-886485940#1_0" departPos="5.10" departSpeed="0.00" departDelay="0.50" arrival="61.00" arrivalLane="1280500777_0" arrivalPos="3.67" arrivalSpeed="11.23" duration="29.00" routeLength="209.03" waitingTime="0.00" waitingCount="0" stopTime="0.00" timeLoss="10.52" rerouteNo="1" devices="tripinfo_63 routing_63" vType="DEFAULT_VEHTYPE" speedFactor="0.99" vaporized=""/>
    <tripinfo id="70" depart="35.00" departLane="-27994589#1_0" departPos="5.10" departSpeed="0.00" departDelay="0.00" arrival="61.00" arrivalLane="-243896990#6_0" arrivalPos="15.81" arrivalSpeed="10.53" duration="26.00" routeLength="214.25" waitingTime="0.00" waitingCount="0" stopTime="0.00" timeLoss="8.99" rerouteNo="1" devices="tripinfo_70 routing_70" vType="DEFAULT_VEHTYPE" speedFactor="1.02" vaporized=""/>
    <tripinfo id="30" depart="15.00" departLane="-27994464#0_0" departPos="5.10" departSpeed="0.00" departDelay="0.00" arrival="63.00" arrivalLane="694335186#1_0" arrivalPos="27.70" arrivalSpeed="15.11" duration="48.00" routeLength="603.43" waitingTime="0.00" waitingCount="0" stopTime="0.00" timeLoss="17.99" rerouteNo="1" devices="tripinfo_30 routing_30" vType="DEFAULT_VEHTYPE" speedFactor="1.18" vaporized=""/>
    <tripinfo id="15" depart="8.00" departLane="380980308#0_0" departPos="5.10" departSpeed="0.00" departDelay="0.50" arrival="66.00" arrivalLane="232235457#2_0" arrivalPos="47.94" arrivalSpeed="11.61" duration="58.00" routeLength="532.73" waitingTime="0.00" waitingCount="0" stopTime="0.00" timeLoss="15.99" rerouteNo="1" devices="tripinfo_15 routing_15" vType="DEFAULT_VEHTYPE" speedFactor="0.93" vaporized=""/>
    <tripinfo id="34" depart="17.00" departLane="-310665112#2_0" departPos="5.10" departSpeed="0.00" departDelay="0.00" arrival="66.00" arrivalLane="-290639912#0_0" arrivalPos="27.16" arrivalSpeed="10.78" duration="49.00" routeLength="432.13" waitingTime="0.00" waitingCount="0" stopTime="0.00" timeLoss="17.36" rerouteNo="1" devices="tripinfo_34 routing_34" vType="DEFAULT_VEHTYPE" speedFactor="0.99" vaporized=""/>
    <tripinfo id="31" depart="16.00" departLane="40696219#1_0" departPos="5.10" departSpeed="0.00" departDelay="0.50" arrival="75.00" arrivalLane="-40696200#3_0" arrivalPos="44.97" arrivalSpeed="15.97" duration="59.00" routeLength="687.04" waitingTime="0.00" waitingCount="0" stopTime="0.00" timeLoss="17.41" rerouteNo="1" devices="tripinfo_31 routing_31" vType="DEFAULT_VEHTYPE" speedFactor="1.15" vaporized=""/>
    <tripinfo id="46" depart="23.00" departLane="59482012#1_0" departPos="5.10" departSpeed="0.00" departDelay="0.00" arrival="77.00" arrivalLane="491889864#1_0" arrivalPos="41.96" arrivalSpeed="13.19" duration="54.00" routeLength="455.98" waitingTime="2.00" waitingCount="2" stopTime="0.00" timeLoss="20.21" rerouteNo="1" devices="tripinfo_46 routing_46" vType="DEFAULT_VEHTYPE" speedFactor="1.00" vaporized=""/>
    <tripinfo id="36" depart="18.00" departLane="-694335198_0" departPos="5.10" departSpeed="0.00" departDelay="0.00" arrival="79.00" arrivalLane="-28120427#7_0" arrivalPos="43.32" arrivalSpeed="12.94" duration="61.00" routeLength="718.71" waitingTime="0.00" waitingCount="0" stopTime="0.00" timeLoss="12.57" rerouteNo="1" devices="tripinfo_36 routing_36" vType="DEFAULT_VEHTYPE" speedFactor="0.97" vaporized=""/>
    <tripinfo id="84" depart="42.00" departLane="995122863_0" departPos="5.10" departSpeed="0.00" departDelay="0.00" arrival="79.00" arrivalLane="40696199#5_0" arrivalPos="28.80" arrivalSpeed="10.83" duration="37.00" routeLength="320.11" waitingTime="0.00" waitingCount="0" stopTime="0.00" timeLoss="16.03" rerouteNo="1" devices="tripinfo_84 routing_84" vType="DEFAULT_VEHTYPE" speedFactor="1.15" vaporized=""/>
    <tripinfo id="12" depart="6.00" departLane="32267022#1_0" departPos="5.10" departSpeed="0.00" departDelay="0.00" arrival="83.00" arrivalLane="28120427#1_0" arrivalPos="22.35" arrivalSpeed="9.76" duration="77.00" routeLength="764.82" waitingTime="8.00" waitingCount="1" stopTime="0.00" timeLoss="33.96" rerouteNo="1" devices="tripinfo_12 routing_12" vType="DEFAULT_VEHTYPE" speedFactor="1.05" vaporized=""/>
    <tripinfo id="3" depart="2.00" departLane="-726834057#2_0" departPos="0.20" departSpeed="0.00" departDelay="0.50" arrival="87.00" arrivalLane="-1185876385_0" arrivalPos="72.17" arrivalSpeed="14.35" duration="85.00" routeLength="761.92" waitingTime="9.00" waitingCount="1" stopTime="0.00" timeLoss="31.02" rerouteNo="1" devices="tripinfo_3 routing_3" vType="DEFAULT_VEHTYPE" speedFactor="1.08" vaporized=""/>
    <tripinfo id="81" depart="43.00" departLane="-726834057#2_0" departPos="0.20" departSpeed="0.00" departDelay="2.50" arrival="87.00" arrivalLane="-32267053#2_0" arrivalPos="3.35" arrivalSpeed="13.40" duration="44.00" routeLength="376.34" waitingTime="0.00" waitingCount="0" stopTime="0.00" timeLoss="13.39" rerouteNo="1" devices="tripinfo_81 routing_81" vType="DEFAULT_VEHTYPE" speedFactor="1.00" vaporized=""/>
    <tripinfo id="79" depart="40.00" departLane="40696203#1_0" departPos="5.10" departSpeed="0.00" departDelay="0.50" arrival="88.00" arrivalLane="-290639912#3_0" arrivalPos="16.55" arrivalSpeed="10.35" duration="48.00" routeLength="199.62" waitingTime="13.00" waitingCount="2" stopTime="0.00" timeLoss="34.65" rerouteNo="1" devices="tripinfo_79 routing_79" vType="DEFAULT_VEHTYPE" speedFactor="1.09" vaporized=""/>
    <tripinfo id="41" depart="21.00" departLane="-310665114_0" departPos="5.10" departSpeed="0.00" departDelay="0.50" arrival="89.00" arrivalLane="243896990#5_0" arrivalPos="0.20" arrivalSpeed="2.49" duration="68.00" routeLength="741.08" waitingTime="2.00" waitingCount="1" stopTime="0.00" timeLoss="15.85" rerouteNo="1" devices="tripinfo_41 routing_41" vType="DEFAULT_VEHTYPE" speedFactor="0.96" vaporized=""/>
    <tripinfo id="38" depart="19.00" departLane="310665116#0_0" departPos="5.10" departSpeed="0.00" departDelay="0.00" arrival="92.00" arrivalLane="-995122863_0" arrivalPos="19.78" arrivalSpeed="12.33" duration="73.00" routeLength="771.73" waitingTime="0.00" waitingCount="0" stopTime="0.00" timeLoss="25.06" rerouteNo="1" devices="tripinfo_38 routing_38" vType="DEFAULT_VEHTYPE" speedFactor="1.10" vaporized=""/>
    <tripinfo id="147" depart="74.00" departLane="694563683_0" departPos="5.10" departSpeed="0.00" departDelay="0.50" arrival="94.00" arrivalLane="-32267053#3_0" arrivalPos="38.97" arrivalSpeed="12.38" duration="20.00" routeLength="157.34" waitingTime="0.00" waitingCount="0" stopTime="0.00" timeLoss="7.17" rerouteNo="1" devices="tripinfo_147 routing_147" vType="DEFAULT_VEHTYPE" speedFactor="1.00" vaporized=""/>
    <tripinfo id="2" depart="1.00" departLane="491889865#1_0" departPos="5.10" departSpeed="0.00" departDelay="0.00" arrival="95.00" arrivalLane="-147575130#0_0" arrivalPos="18.30" arrivalSpeed="11.96" duration="94.00" routeLength="925.16" waitingTime="6.00" waitingCount="1" stopTime="0.00" timeLoss="34.20" rerouteNo="1" devices="tripinfo_2 routing_2" vType="DEFAULT_VEHTYPE" speedFactor="1.01" vaporized=""/>
    <tripinfo id="44" depart="22.00" departLane="40696219#1_0" departPos="5.10" departSpeed="0.00" departDelay="0.00" arrival="97.00" arrivalLane="-310665594#1_0" arrivalPos="45.30" arrivalSpeed="13.39" duration="75.00" routeLength="577.31" waitingTime="23.00" waitingCount="1" stopTime="0.00" timeLoss="46.01" rerouteNo="1" devices="tripinfo_44 routing_44" vType="DEFAULT_VEHTYPE" speedFactor="1.04" vaporized=""/>
    <tripinfo id="109" depart="55.00" departLane="-1331889739_0" departPos="5.10" departSpeed="0.00" departDelay="0.50" arrival="98.00" arrivalLane="-28120426_0" arrivalPos="97.10" arrivalSpeed="12.77" duration="43.00" routeLength="413.87" waitingTime="0.00" waitingCount="0" stopTime="0.00" timeLoss="9.85" rerouteNo="1" devices="tripinfo_109 routing_109" vType="DEFAULT_VEHTYPE" speedFactor="0.96" vaporized=""/>
    <tripinfo id="102" depart="51.00" departLane="-696064754_0" departPos="5.10" departSpeed="0.00" departDelay="0.00" arrival="101.00" arrivalLane="147575130#1_0" arrivalPos="9.07" arrivalSpeed="9.55" duration="50.00" routeLength="432.38" waitingTime="0.00" waitingCount="0" stopTime="0.00" timeLoss="18.72" rerouteNo="1" devices="tripinfo_102 routing_102" vType="DEFAULT_VEHTYPE" speedFactor="0.97" vaporized=""/>
    <tripinfo id="37" depart="19.00" departLane="-195162439_0" departPos="5.10" departSpeed="0.00" departDelay="0.50" arrival="105.00" arrivalLane="243553545#2_0" arrivalPos="40.18" arrivalSpeed="9.13" duration="86.00" routeLength="833.84" waitingTime="0.00" waitingCount="0" stopTime="0.00" timeLoss="34.87" rerouteNo="1" devices="tripinfo_37 routing_37" vType="DEFAULT_VEHTYPE" speedFactor="1.18" vaporized=""/>
    <tripinfo id="112" depart="56.00" departLane="-660092340_0" departPos="5.10" departSpeed="0.00" departDelay="0.00" arrival="106.00" arrivalLane="-27934975#0_0" arrivalPos="16.76" arrivalSpeed="11.81" duration="50.00" routeLength="443.52" waitingTime="3.00" waitingCount="1" stopTime="0.00" timeLoss="18.14" rerouteNo="1" devices="tripinfo_112 routing_112" vType="DEFAULT_VEHTYPE" speedFactor="1.10" vaporized=""/>
    <tripinfo id="97" depart="50.00" departLane="-27934864_0" departPos="5.10" departSpeed="0.00" departDelay="1.50" arrival="112.00" arrivalLane="695251938#3_0" arrivalPos="20.76" arrivalSpeed="11.57" duration="62.00" routeLength="458.16" waitingTime="2.00" waitingCount="1" stopTime="0.00" timeLoss="27.44" rerouteNo="1" devices="tripinfo_97 routing_97" vType="DEFAULT_VEHTYPE" speedFactor="0.91" vaporized=""/>
    <tripinfo id="130" depart="65.00" departLane="-40693535#0_0" departPos="5.10" departSpeed="0.00" departDelay="0.00" arrival="112.00" arrivalLane="59482082#1_0" arrivalPos="35.73" arrivalSpeed="13.76" duration="47.00" routeLength="586.42" waitingTime="0.00" waitingCount="0" stopTime="0.00" timeLoss="16.14" rerouteNo="1" devices="tripinfo_130 routing_130" vType="DEFAULT_VEHTYPE" speedFactor="1.03" vaporized=""/>
    <tripinfo id="137" depart="69.00" departLane="-1110221362_0" departPos="5.10" departSpeed="0.00" departDelay="0.50" arrival="113.00" arrivalLane="28120431#0_0" arrivalPos="35.13" arrivalSpeed="14.05" duration="44.00" routeLength="406.16" waitingTime="0.00" waitingCount="0" stopTime="0.00" timeLoss="14.03" rerouteNo="1" devices="tripinfo_137 routing_137" vType="DEFAULT_VEHTYPE" speedFactor="1.02" vaporized=""/>
    <tripinfo id="168" depart="84.00" departLane="-38098067#2_0" departPos="5.10" departSpeed="0.00" departDelay="0.00" arrival="113.00" arrivalLane="133647781#4_0" arrivalPos="18.50" arrivalSpeed="12.69" duration="29.00" routeLength="247.04" waitingTime="0.00" waitingCount="0" stopTime="0.00" timeLoss="9.27" rerouteNo="1" devices="tripinfo_168 routing_168" vType="DEFAULT_VEHTYPE" speedFactor="0.98" vaporized=""/>
    <tripinfo id="181" depart="91.00" departLane="-27936034#2_0" departPos="5.10" departSpeed="0.00" departDelay="0.50" arrival="113.00" arrivalLane="27936029#1_0" arrivalPos="38.94" arrivalSpeed="13.03" duration="22.00" routeLength="209.03" waitingTime="0.00" waitingCount="0" stopTime="0.00" timeLoss="6.66" rerouteNo="1" devices="tripinfo_181 routing_181" vType="DEFAULT_VEHTYPE" speedFactor="1.03" vaporized=""/>
    <tripinfo id="187" depart="94.00" departLane="123629036#3_0" departPos="5.10" departSpeed="0.00" departDelay="0.50" arrival="113.00" arrivalLane="-123629179#0_0" arrivalPos="162.24" arrivalSpeed="12.07" duration="19.00" routeLength="182.20" waitingTime="0.00" waitingCount="0" stopTime="0.00" timeLoss="3.27" rerouteNo="0" devices="tripinfo_187 routing_187" vType="DEFAULT_VEHTYPE" speedFactor="0.89" vaporized=""/>
    <tripinfo id="96" depart="48.00" departLane="1185876385_0" departPos="5.10" departSpeed="0.00" departDelay="0.00" arrival="114.00" arrivalLane="40696212#1_0" arrivalPos="79.23" arrivalSpeed="13.78" duration="66.00" routeLength="738.77" waitingTime="0.00" waitingCount="0" stopTime="0.00" timeLoss="15.18" rerouteNo="1" devices="tripinfo_96 routing_96" vType="DEFAULT_VEHTYPE" speedFactor="1.01" vaporized=""/>
    <tripinfo id="18" depart="9.00" departLane="-164040895#0_0" departPos="5.10" departSpeed="0.00" departDelay="0.00" arrival="119.00" arrivalLane="-32267053#2_0" arrivalPos="3.35" arrivalSpeed="12.96" duration="110.00" routeLength="1034.81" waitingTime="4.00" waitingCount="1" stopTime="0.00" timeLoss="30.86" rerouteNo="1" devices="tripinfo_18 routing_18" vType="DEFAULT_VEHTYPE" speedFactor="0.94" vaporized=""/>
    <tripinfo id="59" depart="30.00" departLane="-726834057#3_0" departPos="0.77" departSpeed="0.00" departDelay="0.50" arrival="120.00" arrivalLane="-28103476#0_0" arrivalPos="0.20" arrivalSpeed="12.89" duration="90.00" routeLength="548.40" waitingTime="20.00" waitingCount="1" stopTime="0.00" timeLoss="43.57" rerouteNo="1" devices="tripinfo_59 routing_59" vType="DEFAULT_VEHTYPE" speedFactor="0.97" vaporized=""/>
    <tripinfo id="94" depart="47.00" departLane="694563704_0" departPos="5.10" departSpeed="0.00" departDelay="0.00" arrival="127.00" arrivalLane="1424147361_0" arrivalPos="19.44" arrivalSpeed="12.82" duration="80.00" routeLength="773.52" waitingTime="0.00" waitingCount="0" stopTime="0.00" timeLoss="25.30" rerouteNo="1" devices="tripinfo_94 routing_94" vType="DEFAULT_VEHTYPE" speedFactor="1.09" vaporized=""/>
    <tripinfo id="180" depart="90.00" departLane="-695251944#1_0" departPos="5.10" departSpeed="0.00" departDelay="0.00" arrival="128.00" arrivalLane="243553546#1_0" arrivalPos="37.43" arrivalSpeed="14.01" duration="38.00" routeLength="321.42" waitingTime="2.00" waitingCount="1" stopTime="0.00" timeLoss="14.98" rerouteNo="1" devices="tripinfo_180 routing_180" vType="DEFAULT_VEHTYPE" speedFactor="1.10" vaporized=""/>
    <tripinfo id="201" depart="101.00" departLane="128220208#5_0" departPos="5.10" departSpeed="0.00" departDelay="0.50" arrival="130.00" arrivalLane="-27934854#3_0" arrivalPos="52.09" arrivalSpeed="15.02" duration="29.00" routeLength="252.34" waitingTime="0.00" waitingCount="0" stopTime="0.00" timeLoss="11.56" rerouteNo="1" devices="tripinfo_201 routing_201" vType="DEFAULT_VEHTYPE" speedFactor="0.87" vaporized=""/>
    <tripinfo id="8" depart="4.00" departLane="322022988#9_0" departPos="5.10" departSpeed="0.00" departDelay="0.00" arrival="131.00" arrivalLane="27936034#1_0" arrivalPos="47.92" arrivalSpeed="12.14" duration="127.00" routeLength="1170.01" waitingTime="23.00" waitingCount="1" stopTime="0.00" timeLoss="49.32" rerouteNo="1" devices="tripinfo_8 routing_8" vType="DEFAULT_VEHTYPE" speedFactor="0.94" vaporized=""/>
    <tripinfo id="6" depart="3.00" departLane="-28103474#3_0" departPos="5.10" departSpeed="0.00" departDelay="0.00" arrival="134.00" arrivalLane="160556513#3_0" arrivalPos="166.19" arrivalSpeed="11.14" duration="131.00" routeLength="1430.63" waitingTime="30.00" waitingCount="1" stopTime="0.00" timeLoss="62.60" rerouteNo="1" devices="tripinfo_6 routing_6" vType="DEFAULT_VEHTYPE" speedFactor="1.05" vaporized=""/>
    <tripinfo id="196" depart="98.00" departLane="-28120456#2_0" departPos="5.10" departSpeed="0.00" departDelay="0.00" arrival="134.00" arrivalLane="243896990#12_0" arrivalPos="0.20" arrivalSpeed="13.59" duration="36.00" routeLength="368.04" waitingTime="0.00" waitingCount="0" stopTime="0.00" timeLoss="8.88" rerouteNo="1" devices="tripinfo_196 routing_196" vType="DEFAULT_VEHTYPE" speedFactor="1.03" vaporized=""/>
    <tripinfo id="229" depart="115.00" departLane="243896990#0_0" departPos="5.10" departSpeed="0.00" departDelay="0.50" arrival="134.00" arrivalLane="28120461#2_0" arrivalPos="54.98" arrivalSpeed="13.64" duration="19.00" routeLength="189.49" waitingTime="0.00" waitingCount="0" stopTime="0.00" timeLoss="4.22" rerouteNo="1" devices="tripinfo_229 routing_229" vType="DEFAULT_VEHTYPE" speedFactor="0.99" vaporized=""/>
    <tripinfo id="199" depart="100.00" departLane="-133647781#2_0" departPos="5.10" departSpeed="0.00" departDelay="0.50" arrival="139.00" arrivalLane="-35605777#1_0" arrivalPos="51.69" arrivalSpeed="10.97" duration="39.00" routeLength="330.36" waitingTime="0.00" waitingCount="0" stopTime="0.00" timeLoss="7.32" rerouteNo="1" devices="tripinfo_199 routing_199" vType="DEFAULT_VEHTYPE" speedFactor="0.83" vaporized=""/>
    <tripinfo id="134" depart="67.00" departLane="-27934861#4_0" departPos="5.10" departSpeed="0.00" departDelay="0.00" arrival="141.00" arrivalLane="678335364#3_0" arrivalPos="43.86" arrivalSpeed="26.42" duration="74.00" routeLength="494.93" waitingTime="26.00" waitingCount="1" stopTime="0.00" timeLoss="48.76" rerouteNo="1" devices="tripinfo_134 routing_134" vType="DEFAULT_VEHTYPE" speedFactor="1.23" vaporized=""/>
    <tripinfo id="43" depart="22.00" departLane="1090570620#2_0" departPos="4.13" departSpeed="0.00" departDelay="0.50" arrival="142.00" arrivalLane="694563681#1_0" arrivalPos="9.17" arrivalSpeed="13.53" duration="120.00" routeLength="917.96" waitingTime="29.00" waitingCount="2" stopTime="0.00" timeLoss="53.39" rerouteNo="1" devices="tripinfo_43 routing_43" vType="DEFAULT_VEHTYPE" speedFactor="1.04" vaporized=""/>
    <tripinfo id="106" depart="55.00" departLane="-40696199#2_0" departPos="5.10" departSpeed="0.00" departDelay="2.00" arrival="144.00" arrivalLane="28120456#2_0" arrivalPos="32.14" arrivalSpeed="13.91" duration="89.00" routeLength="975.98" waitingTime="5.00" waitingCount="1" stopTime="0.00" timeLoss="31.23" rerouteNo="1" devices="tripinfo_106 routing_106" vType="DEFAULT_VEHTYPE" speedFactor="1.01" vaporized=""/>
    <tripinfo id="111" depart="56.00" departLane="40696223#1_0" departPos="5.10" departSpeed="0.00" departDelay="0.50" arrival="144.00" arrivalLane="491889865#6_0" arrivalPos="84.25" arrivalSpeed="13.53" duration="88.00" routeLength="777.68" waitingTime="1.00" waitingCount="1" stopTime="0.00" timeLoss="33.00" rerouteNo="1" devices="tripinfo_111 routing_111" vType="DEFAULT_VEHTYPE" speedFactor="0.87" vaporized=""/>
    <tripinfo id="256" depart="128.00" departLane="1109599641_0" departPos="0.44" departSpeed="0.00" departDelay="0.00" arrival="144.00" arrivalLane="229976708#3_0" arrivalPos="36.33" arrivalSpeed="20.47" duration="16.00" routeLength="132.07" waitingTime="0.00" waitingCount="0" stopTime="0.00" timeLoss="7.34" rerouteNo="1" devices="tripinfo_256 routing_256" vType="DEFAULT_VEHTYPE" speedFactor="0.96" vaporized=""/>
    <tripinfo id="153" depart="77.00" departLane="27994446#3_0" departPos="5.10" departSpeed="0.00" departDelay="0.50" arrival="147.00" arrivalLane="-40696200#2_0" arrivalPos="17.74" arrivalSpeed="8.26" duration="70.00" routeLength="640.96" waitingTime="2.00" waitingCount="1" stopTime="0.00" timeLoss="28.21" rerouteNo="1" devices="tripinfo_153 routing_153" vType="DEFAULT_VEHTYPE" speedFactor="0.93" vaporized=""/>
    <tripinfo id="10" depart="5.00" departLane="-1387960816#3_0" departPos="5.10" departSpeed="0.00" departDelay="0.00" arrival="149.00" arrivalLane="-164040897#1_0" arrivalPos="77.39" arrivalSpeed="14.42" duration="144.00" routeLength="1880.82" waitingTime="3.00" waitingCount="1" stopTime="0.00" timeLoss="38.75" rerouteNo="1" devices="tripinfo_10 routing_10" vType="DEFAULT_VEHTYPE" speedFactor="1.09" vaporized=""/>
    <tripinfo id="53" depart="27.00" departLane="40696222_0" departPos="5.10" departSpeed="0.00" departDelay="0.50" arrival="150.00" arrivalLane="40696199#0_0" arrivalPos="135.38" arrivalSpeed="14.48" duration="123.00" routeLength="1408.27" waitingTime="13.00" waitingCount="1" stopTime="0.00" timeLoss="43.73" rerouteNo="1" devices="tripinfo_53 routing_53" vType="DEFAULT_VEHTYPE" speedFactor="1.10" vaporized=""/>
    <tripinfo id="19" depart="10.00" departLane="232235457#2_0" departPos="5.10" departSpeed="0.00" departDelay="0.50" arrival="151.00" arrivalLane="-660358966#0_0" arrivalPos="30.90" arrivalSpeed="14.85" duration="141.00" routeLength="1658.27" waitingTime="16.00" waitingCount="1" stopTime="0.00" timeLoss="61.38" rerouteNo="1" devices="tripinfo_19 routing_19" vType="DEFAULT_VEHTYPE" speedFactor="1.16" vaporized=""/>
    <tripinfo id="40" depart="20.00" departLane="-1109599638_0" departPos="5.10" departSpeed="0.00" departDelay="0.00" arrival="151.00" arrivalLane="28103470_0" arrivalPos="121.28" arrivalSpeed="14.26" duration="131.00" routeLength="1037.84" waitingTime="30.00" waitingCount="1" stopTime="0.00" timeLoss="55.32" rerouteNo="1" devices="tripinfo_40 routing_40" vType="DEFAULT_VEHTYPE" speedFactor="1.03" vaporized=""/>
    <tripinfo id="154" depart="77.00" departLane="-692207400#2_0" departPos="5.10" departSpeed="0.00" departDelay="0.00" arrival="152.00" arrivalLane="1421955576#1_0" arrivalPos="20.79" arrivalSpeed="7.78" duration="75.00" routeLength="604.90" waitingTime="0.00" waitingCount="0" stopTime="0.00" timeLoss="11.59" rerouteNo="1" devices="tripinfo_154 routing_154" vType="DEFAULT_VEHTYPE" speedFactor="1.06" vaporized=""/>
    <tripinfo id="156" depart="78.00" departLane="-1042112410_0" departPos="0.20" departSpeed="0.00" departDelay="0.00" arrival="155.00" arrivalLane="661917532_0" arrivalPos="149.93" arrivalSpeed="2.56" duration="77.00" routeLength="165.08" waitingTime="4.00" waitingCount="1" stopTime="0.00" timeLoss="29.84" rerouteNo="0" devices="tripinfo_156 routing_156" vType="DEFAULT_VEHTYPE" speedFactor="1.18" vaporized=""/>
    <tripinfo id="206" depart="103.00" departLane="-726834057#0_0" departPos="5.10" departSpeed="0.00" departDelay="0.00" arrival="158.00" arrivalLane="59482112#2_0" arrivalPos="19.47" arrivalSpeed="10.51" duration="55.00" routeLength="558.21" waitingTime="2.00" waitingCount="1" stopTime="0.00" timeLoss="20.62" rerouteNo="1" devices="tripinfo_206 routing_206" vType="DEFAULT_VEHTYPE" speedFactor="1.00" vaporized=""/>
    <tripinfo id="87" depart="44.00" departLane="1148717038#3_0" departPos="5.10" departSpeed="0.00" departDelay="0.50" arrival="160.00" arrivalLane="-28120427#0_0" arrivalPos="57.65" arrivalSpeed="13.56" duration="116.00" routeLength="1295.62" waitingTime="2.00" waitingCount="2" stopTime="0.00" timeLoss="42.18" rerouteNo="1" devices="tripinfo_87 routing_87" vType="DEFAULT_VEHTYPE" speedFactor="1.04" vaporized=""/>
    <tripinfo id="200" depart="100.00" departLane="-310665594#1_0" departPos="5.10" departSpeed="0.00" departDelay="0.00" arrival="163.00" arrivalLane="-40696204#0_0" arrivalPos="100.64" arrivalSpeed="12.52" duration="63.00" routeLength="635.56" waitingTime="0.00" waitingCount="0" stopTime="0.00" timeLoss="18.21" rerouteNo="1" devices="tripinfo_200 routing_200" vType="DEFAULT_VEHTYPE" speedFactor="0.95" vaporized=""/>
    <tripinfo id="267" depart="137.00" departLane="28120427#10_0" departPos="5.10" departSpeed="0.00" departDelay="3.50" arrival="163.00" arrivalLane="-40696220#0_0" arrivalPos="33.94" arrivalSpeed="12.53" duration="26.00" routeLength="243.03" waitingTime="0.00" waitingCount="0" stopTime="0.00" timeLoss="5.90" rerouteNo="1" devices="tripinfo_267 routing_267" vType="DEFAULT_VEHTYPE" speedFactor="0.92" vaporized=""/>
    <tripinfo id="108" depart="54.00" departLane="97187758_0" departPos="5.10" departSpeed="0.00" departDelay="0.00" arrival="164.00" arrivalLane="886485940#3_0" arrivalPos="0.20" arrivalSpeed="3.78" duration="110.00" routeLength="1497.92" waitingTime="0.00" waitingCount="0" stopTime="0.00" timeLoss="24.19" rerouteNo="1" devices="tripinfo_108 routing_108" vType="DEFAULT_VEHTYPE" speedFactor="1.06" vaporized=""/>
    <tripinfo id="208" depart="106.00" departLane="-678335364#2_0" departPos="5.10" departSpeed="0.00" departDelay="2.00" arrival="166.00" arrivalLane="-1101690290_0" arrivalPos="44.05" arrivalSpeed="12.27" duration="60.00" routeLength="570.59" waitingTime="9.00" waitingCount="2" stopTime="0.00" timeLoss="28.59" rerouteNo="1" devices="tripinfo_208 routing_208" vType="DEFAULT_VEHTYPE" speedFactor="0.96" vaporized=""/>
    <tripinfo id="222" depart="111.00" departLane="-27994464#1_0" departPos="5.10" departSpeed="0.00" departDelay="0.00" arrival="166.00" arrivalLane="-40696212#0_0" arrivalPos="47.01" arrivalSpeed="10.63" duration="55.00" routeLength="518.29" waitingTime="0.00" waitingCount="0" stopTime="0.00" timeLoss="15.73" rerouteNo="1" devices="tripinfo_222 routing_222" vType="DEFAULT_VEHTYPE" speedFactor="0.84" vaporized=""/>
    <tripinfo id="35" depart="18.00" departLane="1384907602_0" departPos="0.20" departSpeed="0.00" departDelay="0.50" arrival="167.00" arrivalLane="59482082#0_0" arrivalPos="0.20" arrivalSpeed="5.20" duration="149.00" routeLength="1620.69" waitingTime="28.00" waitingCount="1" stopTime="0.00" timeLoss="54.84" rerouteNo="1" devices="tripinfo_35 routing_35" vType="DEFAULT_VEHTYPE" speedFactor="1.02" vaporized=""/>
    <tripinfo id="289" depart="145.00" departLane="310665115#0_0" departPos="5.10" departSpeed="0.00" departDelay="0.50" arrival="169.00" arrivalLane="-28120433#4_0" arrivalPos="17.53" arrivalSpeed="11.17" duration="24.00" routeLength="215.80" waitingTime="0.00" waitingCount="0" stopTime="0.00" timeLoss="9.04" rerouteNo="1" devices="tripinfo_289 routing_289" vType="DEFAULT_VEHTYPE" speedFactor="1.19" vaporized=""/>
    <tripinfo id="20" depart="10.00" departLane="-660103250_0" departPos="5.10" departSpeed="0.00" departDelay="0.00" arrival="170.00" arrivalLane="-28103474#2_0" arrivalPos="67.24" arrivalSpeed="14.00" duration="160.00" routeLength="1823.75" waitingTime="8.00" waitingCount="2" stopTime="0.00" timeLoss="48.41" rerouteNo="1" devices="tripinfo_20 routing_20" vType="DEFAULT_VEHTYPE" speedFactor="1.02" vaporized=""/>
    <tripinfo id="315" depart="159.00" departLane="-1213264717_0" departPos="5.10" departSpeed="0.00" departDelay="1.50" arrival="170.00" arrivalLane="28120461#4_0" arrivalPos="32.62" arrivalSpeed="10.44" duration="11.00" routeLength="64.80" waitingTime="0.00" waitingCount="0" stopTime="0.00" timeLoss="6.20" rerouteNo="0" devices="tripinfo_315 routing_315" vType="DEFAULT_VEHTYPE" speedFactor="1.15" vaporized=""/>
    <tripinfo id="211" depart="106.00" departLane="-696064753_0" departPos="5.10" departSpeed="0.00" departDelay="0.50" arrival="171.00" arrivalLane="28120439#7_0" arrivalPos="7.53" arrivalSpeed="7.60" duration="65.00" routeLength="450.13" waitingTime="7.00" waitingCount="1" stopTime="0.00" timeLoss="35.13" rerouteNo="1" devices="tripinfo_211 routing_211" vType="DEFAULT_VEHTYPE" speedFactor="1.04" vaporized=""/>