<?xml version="1.0" encoding="UTF-8"?>

<!-- generated on 2025-09-20 21:18:07 by Eclipse SUMO GUI Version 1.24.0
<sumoConfiguration xmlns:xsi="http://www.w3.org/2001/XMLSchema-instance" xsi:noNamespaceSchemaLocation="http://sumo.dlr.de/xsd/sumoConfiguration.xsd">

    <input>
        <net-file value="../Banglore_Silk_Junction_Map/osm.net.xml.gz"/>
        <route-files value="../Banglore_Silk_Junction_Map/osm_pt.rou.xml,../Banglore_Silk_Junction_Map/osm.passenger.trips.xml"/>
        <additional-files value="../Banglore_Silk_Junction_Map/osm.poly.xml.gz,../Banglore_Silk_Junction_Map/osm_stops.add.xml,../Banglore_Silk_Junction_Map/output.add.xml"/>
    </input>

    <output>
        <summary-output value="outputs/bangalore_before_ai_summary.xml"/>
        <tripinfo-output value="outputs/bangalore_before_ai_tripinfo.xml"/>
        <stop-output value="../Banglore_Silk_Junction_Map/stopinfos.xml"/>
        <statistic-output value="../Banglore_Silk_Junction_Map/stats.xml"/>
    </output>

    <processing>
        <ignore-route-errors value="true"/>
        <tls.actuated.jam-threshold value="30"/>
    </processing>

    <routing>
        <device.rerouting.adaptation-steps value="18"/>
        <device.rerouting.adaptation-interval value="10"/>
    </routing>

    <report>
        <verbose value="true"/>
        <duration-log.statistics value="true"/>
        <no-step-log value="true"/>
    </report>

    <traci_server>
        <remote-port value="8813"/>
    </traci_server>

    <gui_only>
        <gui-settings-file value="../Banglore_Silk_Junction_Map/osm.view.xml"/>
        <start value="true"/>
    </gui_only>

</sumoConfiguration>
-->

<tripinfos xmlns:xsi="http://www.w3.org/2001/XMLSchema-instance" xsi:noNamespaceSchemaLocation="http://sumo.dlr.de/xsd/tripinfo_file.xsd">
    <tripinfo id="veh36" depart="27.00" departLane="-290639793#10_0" departPos="5.10" departSpeed="0.00" departDelay="0.49" arrival="91.00" arrivalLane="-310665101#1_0" arrivalPos="13.94" arrivalSpeed="9.61" duration="64.00" routeLength="778.01" waitingTime="0.00" waitingCount="0" stopTime="0.00" timeLoss="19.51" rerouteNo="1" devices="tripinfo_veh36 routing_veh36" vType="veh_passenger" speedFactor="0.97" vaporized=""/>
    <tripinfo id="veh8" depart="6.00" departLane="310456181#0_0" departPos="5.10" departSpeed="0.00" departDelay="0.11" arrival="96.00" arrivalLane="-1101690261_0" arrivalPos="35.85" arrivalSpeed="11.76" duration="90.00" routeLength="848.75" waitingTime="0.00" waitingCount="0" stopTime="0.00" timeLoss="18.40" rerouteNo="1" devices="tripinfo_veh8 routing_veh8" vType="veh_passenger" speedFactor="0.94" vaporized=""/>
    <tripinfo id="veh6" depart="5.00" departLane="-1102833429_0" departPos="5.10" departSpeed="13.14" departDelay="0.58" arrival="103.00" arrivalLane="-28120400#7_0" arrivalPos="20.33" arrivalSpeed="9.06" duration="98.00" routeLength="1527.56" waitingTime="0.00" waitingCount="0" stopTime="0.00" timeLoss="19.09" rerouteNo="1" devices="tripinfo_veh6 routing_veh6" vType="veh_passenger" speedFactor="1.05" vaporized=""/>
    <tripinfo id="veh25" depart="19.00" departLane="-147575198#3_0" departPos="5.10" departSpeed="0.00" departDelay="0.59" arrival="104.00" arrivalLane="309190304#0_0" arrivalPos="95.27" arrivalSpeed="10.97" duration="85.00" routeLength="771.75" waitingTime="0.00" waitingCount="0" stopTime="0.00" timeLoss="16.10" rerouteNo="1" devices="tripinfo_veh25 routing_veh25" vType="veh_passenger" speedFactor="0.87" vaporized=""/>
    <tripinfo id="veh92" depart="68.00" departLane="1165661287#0_0" departPos="5.10" departSpeed="0.00" departDelay="0.25" arrival="115.00" arrivalLane="291973715#2_0" arrivalPos="8.41" arrivalSpeed="11.42" duration="47.00" routeLength="596.53" waitingTime="0.00" waitingCount="0" stopTime="0.00" timeLoss="11.12" rerouteNo="1" devices="tripinfo_veh92 routing_veh92" vType="veh_passenger" speedFactor="0.83" vaporized=""/>
    <tripinfo id="veh44" depart="33.00" departLane="799592387_0" departPos="5.10" departSpeed="14.49" departDelay="0.60" arrival="116.00" arrivalLane="558683371_0" arrivalPos="50.13" arrivalSpeed="13.53" duration="83.00" routeLength="836.23" waitingTime="0.00" waitingCount="0" stopTime="0.00" timeLoss="21.36" rerouteNo="1" devices="tripinfo_veh44 routing_veh44" vType="veh_passenger" speedFactor="1.04" vaporized=""/>
    <tripinfo id="veh2" depart="2.00" departLane="27935848#2_0" departPos="5.10" departSpeed="0.00" departDelay="0.53" arrival="123.00" arrivalLane="27936042#0_0" arrivalPos="119.83" arrivalSpeed="13.27" duration="121.00" routeLength="1403.32" waitingTime="4.00" waitingCount="1" stopTime="0.00" timeLoss="32.16" rerouteNo="1" devices="tripinfo_veh2 routing_veh2" vType="veh_passenger" speedFactor="1.01" vaporized=""/>
    <tripinfo id="veh42" depart="31.00" departLane="-1110211978_0" departPos="5.10" departSpeed="9.68" departDelay="0.07" arrival="127.00" arrivalLane="-81254203_0" arrivalPos="143.44" arrivalSpeed="14.44" duration="96.00" routeLength="1150.84" waitingTime="0.00" waitingCount="0" stopTime="0.00" timeLoss="22.64" rerouteNo="1" devices="tripinfo_veh42 routing_veh42" vType="veh_passenger" speedFactor="1.09" vaporized=""/>
    <tripinfo id="veh53" depart="40.00" departLane="128220170#2_0" departPos="5.10" departSpeed="0.00" departDelay="0.97" arrival="132.00" arrivalLane="-27934854#9_0" arrivalPos="121.97" arrivalSpeed="23.06" duration="92.00" routeLength="1266.97" waitingTime="0.00" waitingCount="0" stopTime="0.00" timeLoss="29.23" rerouteNo="1" devices="tripinfo_veh53 routing_veh53" vType="veh_passenger" speedFactor="1.10" vaporized=""/>
    <tripinfo id="veh95" depart="70.00" departLane="1110178624#1_1" departPos="0.20" departSpeed="0.00" departDelay="0.04" arrival="135.00" arrivalLane="310456163_0" arrivalPos="33.14" arrivalSpeed="14.46" duration="65.00" routeLength="637.27" waitingTime="0.00" waitingCount="0" stopTime="0.00" timeLoss="16.79" rerouteNo="1" devices="tripinfo_veh95 routing_veh95" vType="veh_passenger" speedFactor="1.06" vaporized=""/>
    <tripinfo id="veh55" depart="41.00" departLane="-1101696108_0" departPos="5.10" departSpeed="9.90" departDelay="0.50" arrival="137.00" arrivalLane="694981019_0" arrivalPos="93.82" arrivalSpeed="12.76" duration="96.00" routeLength="1199.38" waitingTime="0.00" waitingCount="0" stopTime="0.00" timeLoss="18.75" rerouteNo="1" devices="tripinfo_veh55 routing_veh55" vType="veh_passenger" speedFactor="1.00" vaporized=""/>
    <tripinfo id="veh102" depart="76.00" departLane="-694302718_0" departPos="5.10" departSpeed="13.45" departDelay="0.89" arrival="139.00" arrivalLane="1427462048_0" arrivalPos="23.30" arrivalSpeed="13.35" duration="63.00" routeLength="650.41" waitingTime="0.00" waitingCount="0" stopTime="0.00" timeLoss="17.20" rerouteNo="1" devices="tripinfo_veh102 routing_veh102" vType="veh_passenger" speedFactor="0.97" vaporized=""/>
    <tripinfo id="veh1" depart="1.00" departLane="-291973730#6_0" departPos="5.10" departSpeed="0.00" departDelay="0.26" arrival="142.00" arrivalLane="-309190308_0" arrivalPos="94.17" arrivalSpeed="11.93" duration="141.00" routeLength="1507.10" waitingTime="11.00" waitingCount="1" stopTime="0.00" timeLoss="45.78" rerouteNo="1" devices="tripinfo_veh1 routing_veh1" vType="veh_passenger" speedFactor="0.94" vaporized=""/>
    <tripinfo id="veh30" depart="23.00" departLane="-27936029#0_0" departPos="5.10" departSpeed="0.00" departDelay="0.91" arrival="142.00" arrivalLane="-1183377618_0" arrivalPos="34.74" arrivalSpeed="12.36" duration="119.00" routeLength="1330.66" waitingTime="0.00" waitingCount="0" stopTime="0.00" timeLoss="32.28" rerouteNo="1" devices="tripinfo_veh30 routing_veh30" vType="veh_passenger" speedFactor="1.18" vaporized=""/>
    <tripinfo id="veh61" depart="45.00" departLane="-794381851_0" departPos="5.10" departSpeed="15.55" departDelay="0.08" arrival="142.00" arrivalLane="1335927786#3_0" arrivalPos="54.31" arrivalSpeed="14.82" duration="97.00" routeLength="1255.77" waitingTime="0.00" waitingCount="0" stopTime="0.00" timeLoss="14.21" rerouteNo="1" devices="tripinfo_veh61 routing_veh61" vType="veh_passenger" speedFactor="1.12" vaporized=""/>
    <tripinfo id="veh14" depart="11.00" departLane="1109895159_0" departPos="5.10" departSpeed="13.67" departDelay="0.69" arrival="144.00" arrivalLane="800240405_0" arrivalPos="24.61" arrivalSpeed="12.33" duration="133.00" routeLength="1473.02" waitingTime="12.00" waitingCount="2" stopTime="0.00" timeLoss="46.46" rerouteNo="1" devices="tripinfo_veh14 routing_veh14" vType="veh_passenger" speedFactor="0.99" vaporized=""/>
    <tripinfo id="veh31" depart="23.00" departLane="-310665081#0_0" departPos="5.10" departSpeed="0.00" departDelay="0.17" arrival="149.00" arrivalLane="-32267142#1_0" arrivalPos="37.03" arrivalSpeed="25.42" duration="126.00" routeLength="2466.05" waitingTime="0.00" waitingCount="0" stopTime="0.00" timeLoss="29.88" rerouteNo="1" devices="tripinfo_veh31 routing_veh31" vType="veh_passenger" speedFactor="1.15" vaporized=""/>
    <tripinfo id="veh134" depart="99.00" departLane="-28120400#12_0" departPos="5.10" departSpeed="0.00" departDelay="0.32" arrival="163.00" arrivalLane="-147561896#0_0" arrivalPos="55.79" arrivalSpeed="16.36" duration="64.00" routeLength="1262.83" waitingTime="0.00" waitingCount="0" stopTime="0.00" timeLoss="18.06" rerouteNo="1" devices="tripinfo_veh134 routing_veh134" vType="veh_passenger" speedFactor="1.23" vaporized=""/>
    <tripinfo id="veh51" depart="38.00" departLane="631197944#0_2" departPos="5.10" departSpeed="0.00" departDelay="0.44" arrival="165.00" arrivalLane="610166550#10_1" arrivalPos="55.60" arrivalSpeed="12.32" duration="127.00" routeLength="2296.31" waitingTime="5.00" waitingCount="1" stopTime="0.00" timeLoss="33.93" rerouteNo="1" devices="tripinfo_veh51 routing_veh51" vType="veh_passenger" speedFactor="1.17" vaporized=""/>
    <tripinfo id="veh85" depart="63.00" departLane="995122863_0" departPos="5.10" departSpeed="9.39" departDelay="0.41" arrival="165.00" arrivalLane="40696194#1_0" arrivalPos="22.70" arrivalSpeed="13.21" duration="102.00" routeLength="1318.50" waitingTime="0.00" waitingCount="0" stopTime="0.00" timeLoss="28.09" rerouteNo="1" devices="tripinfo_veh85 routing_veh85" vType="veh_passenger" speedFactor="0.98" vaporized=""/>
    <tripinfo id="veh175" depart="129.00" departLane="-778898123_0" departPos="5.10" departSpeed="12.77" departDelay="0.13" arrival="166.00" arrivalLane="694302721_0" arrivalPos="37.26" arrivalSpeed="12.04" duration="37.00" routeLength="436.59" waitingTime="0.00" waitingCount="0" stopTime="0.00" timeLoss="8.68" rerouteNo="1" devices="tripinfo_veh175 routing_veh175" vType="veh_passenger" speedFactor="0.92" vaporized=""/>
    <tripinfo id="veh140" depart="104.00" departLane="-310667984#1_0" departPos="5.10" departSpeed="15.47" departDelay="0.91" arrival="168.00" arrivalLane="694981025_0" arrivalPos="59.97" arrivalSpeed="14.47" duration="64.00" routeLength="790.61" waitingTime="0.00" waitingCount="0" stopTime="0.00" timeLoss="12.84" rerouteNo="1" devices="tripinfo_veh140 routing_veh140" vType="veh_passenger" speedFactor="1.11" vaporized=""/>
    <tripinfo id="veh19" depart="14.00" departLane="-1185468746_0" departPos="5.10" departSpeed="16.09" departDelay="0.01" arrival="169.00" arrivalLane="-309618845#9_0" arrivalPos="20.63" arrivalSpeed="14.14" duration="155.00" routeLength="2149.45" waitingTime="0.00" waitingCount="0" stopTime="0.00" timeLoss="26.44" rerouteNo="1" devices="tripinfo_veh19 routing_veh19" vType="veh_passenger" speedFactor="1.16" vaporized=""/>
    <tripinfo id="veh147" depart="109.00" departLane="309191381_0" departPos="5.10" departSpeed="0.00" departDelay="0.75" arrival="169.00" arrivalLane="-309193964#0_0" arrivalPos="23.25" arrivalSpeed="12.00" duration="60.00" routeLength="840.21" waitingTime="0.00" waitingCount="0" stopTime="0.00" timeLoss="14.42" rerouteNo="1" devices="tripinfo_veh147 routing_veh147" vType="veh_passenger" speedFactor="1.00" vaporized=""/>
    <tripinfo id="veh139" depart="103.00" departLane="-1102829162_0" departPos="5.10" departSpeed="11.69" departDelay="0.64" arrival="174.00" arrivalLane="309194360_0" arrivalPos="41.72" arrivalSpeed="13.16" duration="71.00" routeLength="701.96" waitingTime="0.00" waitingCount="0" stopTime="0.00" timeLoss="14.67" rerouteNo="1" devices="tripinfo_veh139 routing_veh139" vType="veh_passenger" speedFactor="0.95" vaporized=""/>
    <tripinfo id="veh26" depart="20.00" departLane="-147575144#1_0" departPos="5.10" departSpeed="0.00" departDelay="0.85" arrival="182.00" arrivalLane="-81254189#9_0" arrivalPos="10.09" arrivalSpeed="12.65" duration="162.00" routeLength="2458.88" waitingTime="0.00" waitingCount="0" stopTime="0.00" timeLoss="27.56" rerouteNo="1" devices="tripinfo_veh26 routing_veh26" vType="veh_passenger" speedFactor="0.92" vaporized=""/>
    <tripinfo id="veh43" depart="32.00" departLane="97187758_0" departPos="5.10" departSpeed="0.00" departDelay="0.34" arrival="186.00" arrivalLane="1254626825_0" arrivalPos="2.54" arrivalSpeed="9.90" duration="154.00" routeLength="2383.27" waitingTime="0.00" waitingCount="0" stopTime="0.00" timeLoss="33.47" rerouteNo="1" devices="tripinfo_veh43 routing_veh43" vType="veh_passenger" speedFactor="1.04" vaporized=""/>
    <tripinfo id="veh81" depart="60.00" departLane="-694302725_0" departPos="5.10" departSpeed="13.86" departDelay="0.35" arrival="186.00" arrivalLane="-383732626_0" arrivalPos="47.48" arrivalSpeed="2.03" duration="126.00" routeLength="1300.03" waitingTime="0.00" waitingCount="0" stopTime="0.00" timeLoss="26.67" rerouteNo="1" devices="tripinfo_veh81 routing_veh81" vType="veh_passenger" speedFactor="1.00" vaporized=""/>
    <tripinfo id="veh100" depart="74.00" departLane="-27994380#15_0" departPos="5.10" departSpeed="0.00" departDelay="0.36" arrival="192.00" arrivalLane="-222798629#0_0" arrivalPos="4.82" arrivalSpeed="7.53" duration="118.00" routeLength="1246.26" waitingTime="0.00" waitingCount="0" stopTime="0.00" timeLoss="38.21" rerouteNo="1" devices="tripinfo_veh100 routing_veh100" vType="veh_passenger" speedFactor="1.06" vaporized=""/>
    <tripinfo id="veh161" depart="119.00" departLane="27935979#5_0" departPos="5.10" departSpeed="0.00" departDelay="0.44" arrival="196.00" arrivalLane="27935900#1_0" arrivalPos="35.30" arrivalSpeed="14.14" duration="77.00" routeLength="823.61" waitingTime="0.00" waitingCount="0" stopTime="0.00" timeLoss="15.13" rerouteNo="1" devices="tripinfo_veh161 routing_veh161" vType="veh_passenger" speedFactor="1.08" vaporized=""/>
    <tripinfo id="veh45" depart="34.00" departLane="-1101675540_0" departPos="5.10" departSpeed="2.70" departDelay="0.86" arrival="199.00" arrivalLane="291973721#14_0" arrivalPos="8.46" arrivalSpeed="23.81" duration="165.00" routeLength="2573.29" waitingTime="0.00" waitingCount="0" stopTime="0.00" timeLoss="38.81" rerouteNo="1" devices="tripinfo_veh45 routing_veh45" vType="veh_passenger" speedFactor="1.09" vaporized=""/>
    <tripinfo id="veh12" depart="9.00" departLane="334652524#2_0" departPos="5.10" departSpeed="0.00" departDelay="0.16" arrival="201.00" arrivalLane="148210029_0" arrivalPos="118.09" arrivalSpeed="14.31" duration="192.00" routeLength="2507.92" waitingTime="1.00" waitingCount="1" stopTime="0.00" timeLoss="49.06" rerouteNo="1" devices="tripinfo_veh12 routing_veh12" vType="veh_passenger" speedFactor="1.05" vaporized=""/>
    <tripinfo id="veh73" depart="54.00" departLane="-27935459_0" departPos="5.10" departSpeed="14.66" departDelay="0.24" arrival="202.00" arrivalLane="-237089966#0_0" arrivalPos="70.98" arrivalSpeed="13.41" duration="148.00" routeLength="2073.19" waitingTime="0.00" waitingCount="0" stopTime="0.00" timeLoss="30.73" rerouteNo="1" devices="tripinfo_veh73 routing_veh73" vType="veh_passenger" speedFactor="1.06" vaporized=""/>
    <tripinfo id="veh77" depart="57.00" departLane="27935419#1_0" departPos="5.10" departSpeed="0.00" departDelay="0.30" arrival="204.00" arrivalLane="27935999#1_0" arrivalPos="94.19" arrivalSpeed="12.71" duration="147.00" routeLength="1678.81" waitingTime="0.00" waitingCount="0" stopTime="0.00" timeLoss="26.47" rerouteNo="1" devices="tripinfo_veh77 routing_veh77" vType="veh_passenger" speedFactor="0.98" vaporized=""/>
    <tripinfo id="veh46" depart="34.00" departLane="229976708#5_0" departPos="5.10" departSpeed="0.00" departDelay="0.13" arrival="207.00" arrivalLane="128220208#4_0" arrivalPos="21.25" arrivalSpeed="13.65" duration="173.00" routeLength="2427.69" waitingTime="0.00" waitingCount="0" stopTime="0.00" timeLoss="33.58" rerouteNo="1" devices="tripinfo_veh46 routing_veh46" vType="veh_passenger" speedFactor="1.00" vaporized=""/>
    <tripinfo id="veh86" depart="64.00" departLane="343683208#3_0" departPos="1.81" departSpeed="0.00" departDelay="0.67" arrival="207.00" arrivalLane="-27935818#1_0" arrivalPos="79.07" arrivalSpeed="12.90" duration="143.00" routeLength="1254.28" waitingTime="14.00" waitingCount="1" stopTime="0.00" timeLoss="47.97" rerouteNo="1" devices="tripinfo_veh86 routing_veh86" vType="veh_passenger" speedFactor="1.00" vaporized=""/>
    <tripinfo id="veh150" depart="111.00" departLane="794634835#0_3" departPos="5.10" departSpeed="0.00" departDelay="0.54" arrival="207.00" arrivalLane="-393308178_0" arrivalPos="45.34" arrivalSpeed="12.43" duration="96.00" routeLength="1113.90" waitingTime="0.00" waitingCount="0" stopTime="0.00" timeLoss="15.73" rerouteNo="1" devices="tripinfo_veh150 routing_veh150" vType="veh_passenger" speedFactor="0.96" vaporized=""/>
    <tripinfo id="veh54" depart="40.00" departLane="290638884#0_0" departPos="5.10" departSpeed="0.00" departDelay="0.23" arrival="210.00" arrivalLane="125862470#1_0" arrivalPos="92.77" arrivalSpeed="12.80" duration="170.00" routeLength="2128.12" waitingTime="16.00" waitingCount="2" stopTime="0.00" timeLoss="65.35" rerouteNo="1" devices="tripinfo_veh54 routing_veh54" vType="veh_passenger" speedFactor="1.00" vaporized=""/>
    <tripinfo id="veh49" depart="37.00" departLane="40696203#0_0" departPos="5.10" departSpeed="0.00" departDelay="0.92" arrival="215.00" arrivalLane="-32266753#3_0" arrivalPos="12.16" arrivalSpeed="11.78" duration="178.00" routeLength="1988.26" waitingTime="20.00" waitingCount="2" stopTime="0.00" timeLoss="60.48" rerouteNo="1" devices="tripinfo_veh49 routing_veh49" vType="veh_passenger" speedFactor="0.85" vaporized=""/>
    <tripinfo id="veh29" depart="22.00" departLane="32267142#0_0" departPos="5.10" departSpeed="0.00" departDelay="0.64" arrival="216.00" arrivalLane="310665112#2_0" arrivalPos="27.23" arrivalSpeed="12.53" duration="194.00" routeLength="2617.62" waitingTime="13.00" waitingCount="2" stopTime="0.00" timeLoss="61.69" rerouteNo="1" devices="tripinfo_veh29 routing_veh29" vType="veh_passenger" speedFactor="0.93" vaporized=""/>
    <tripinfo id="veh149" depart="110.00" departLane="-310665124_0" departPos="5.10" departSpeed="14.44" departDelay="0.28" arrival="216.00" arrivalLane="559786861#2_0" arrivalPos="91.99" arrivalSpeed="22.43" duration="106.00" routeLength="1577.34" waitingTime="6.00" waitingCount="1" stopTime="0.00" timeLoss="31.70" rerouteNo="1" devices="tripinfo_veh149 routing_veh149" vType="veh_passenger" speedFactor="1.04" vaporized=""/>
    <tripinfo id="veh56" depart="42.00" departLane="40696214#0_0" departPos="5.10" departSpeed="0.00" departDelay="0.76" arrival="217.00" arrivalLane="40693543#1_0" arrivalPos="41.88" arrivalSpeed="11.21" duration="175.00" routeLength="1907.43" waitingTime="12.00" waitingCount="2" stopTime="0.00" timeLoss="58.75" rerouteNo="1" devices="tripinfo_veh56 routing_veh56" vType="veh_passenger" speedFactor="0.90" vaporized=""/>
    <tripinfo id="veh38" depart="28.00" departLane="123624213#3_0" departPos="0.20" departSpeed="0.00" departDelay="0.02" arrival="219.00" arrivalLane="694302715_0" arrivalPos="72.92" arrivalSpeed="14.65" duration="191.00" routeLength="3804.30" waitingTime="0.00" waitingCount="0" stopTime="0.00" timeLoss="41.74" rerouteNo="1" devices="tripinfo_veh38 routing_veh38" vType="veh_passenger" speedFactor="1.10" vaporized=""/>
    <tripinfo id="veh58" depart="43.00" departLane="-1196120540_0" departPos="5.10" departSpeed="12.80" departDelay="0.29" arrival="219.00" arrivalLane="1196120512#0_1" arrivalPos="53.86" arrivalSpeed="10.20" duration="176.00" routeLength="2787.82" waitingTime="0.00" waitingCount="0" stopTime="0.00" timeLoss="24.35" rerouteNo="1" devices="tripinfo_veh58 routing_veh58" vType="veh_passenger" speedFactor="1.02" vaporized=""/>
    <tripinfo id="veh187" depart="141.00" departLane="27994380#20_0" departPos="5.10" departSpeed="0.00" departDelay="3.29" arrival="221.00" arrivalLane="310665088_0" arrivalPos="68.26" arrivalSpeed="11.16" duration="80.00" routeLength="625.65" waitingTime="26.00" waitingCount="1" stopTime="0.00" timeLoss="47.13" rerouteNo="1" devices="tripinfo_veh187 routing_veh187" vType="veh_passenger" speedFactor="0.89" vaporized=""/>
    <tripinfo id="veh15" depart="12.00" departLane="-40696212#0_0" departPos="5.10" departSpeed="0.00" departDelay="0.95" arrival="224.00" arrivalLane="133748880#4_0" arrivalPos="20.72" arrivalSpeed="11.92" duration="212.00" routeLength="2064.36" waitingTime="30.00" waitingCount="2" stopTime="0.00" timeLoss="68.06" rerouteNo="1" devices="tripinfo_veh15 routing_veh15" vType="veh_passenger" speedFactor="0.93" vaporized=""/>
    <tripinfo id="veh87" depart="65.00" departLane="-800240405_0" departPos="5.10" departSpeed="14.48" departDelay="0.93" arrival="225.00" arrivalLane="-291228867_0" arrivalPos="21.98" arrivalSpeed="14.33" duration="160.00" routeLength="2152.92" waitingTime="12.00" waitingCount="1" stopTime="0.00" timeLoss="48.36" rerouteNo="1" devices="tripinfo_veh87 routing_veh87" vType="veh_passenger" speedFactor="1.04" vaporized=""/>
    <tripinfo id="veh0" depart="0.00" departLane="136017975#6_0" departPos="5.10" departSpeed="0.00" departDelay="0.00" arrival="226.00" arrivalLane="-112462015#1_0" arrivalPos="16.44" arrivalSpeed="9.23" duration="226.00" routeLength="2265.20" waitingTime="16.00" waitingCount="1" stopTime="0.00" timeLoss="48.68" rerouteNo="1" devices="tripinfo_veh0 routing_veh0" vType="veh_passenger" speedFactor="1.06" vaporized=""/>
    <tripinfo id="veh20" depart="15.00" departLane="-1236087679#1_0" departPos="0.20" departSpeed="0.00" departDelay="0.27" arrival="232.00" arrivalLane="-38098070#1_0" arrivalPos="141.48" arrivalSpeed="13.74" duration="217.00" routeLength="2464.32" waitingTime="0.00" waitingCount="0" stopTime="0.00" timeLoss="38.02" rerouteNo="1" devices="tripinfo_veh20 routing_veh20" vType="veh_passenger" speedFactor="1.02" vaporized=""/>
    <tripinfo id="veh52" depart="39.00" departLane="-310456170_0" departPos="5.10" departSpeed="14.12" departDelay="0.71" arrival="233.00" arrivalLane="24490731#5_0" arrivalPos="20.29" arrivalSpeed="13.44" duration="194.00" routeLength="2295.97" waitingTime="13.00" waitingCount="2" stopTime="0.00" timeLoss="49.75" rerouteNo="1" devices="tripinfo_veh52 routing_veh52" vType="veh_passenger" speedFactor="1.02" vaporized=""/>
    <tripinfo id="veh148" depart="109.00" departLane="-1102829129_0" departPos="5.10" departSpeed="13.43" departDelay="0.01" arrival="238.00" arrivalLane="-28103494#0_0" arrivalPos="29.35" arrivalSpeed="10.61" duration="129.00" routeLength="1480.95" waitingTime="17.00" waitingCount="1" stopTime="0.00" timeLoss="52.97" rerouteNo="1" devices="tripinfo_veh148 routing_veh148" vType="veh_passenger" speedFactor="0.97" vaporized=""/>
    <tripinfo id="veh80" depart="59.00" departLane="40693500_0" departPos="5.10" departSpeed="14.37" departDelay="0.09" arrival="239.00" arrivalLane="-310665112#0_0" arrivalPos="24.02" arrivalSpeed="13.14" duration="180.00" routeLength="2474.59" waitingTime="4.00" waitingCount="2" stopTime="0.00" timeLoss="50.20" rerouteNo="1" devices="tripinfo_veh80 routing_veh80" vType="veh_passenger" speedFactor="1.03" vaporized=""/>
    <tripinfo id="veh41" depart="31.00" departLane="309190306_0" departPos="5.10" departSpeed="13.29" departDelay="0.81" arrival="240.00" arrivalLane="1102833433_0" arrivalPos="25.43" arrivalSpeed="12.82" duration="209.00" routeLength="1893.04" waitingTime="66.00" waitingCount="3" stopTime="0.00" timeLoss="101.89" rerouteNo="1" devices="tripinfo_veh41 routing_veh41" vType="veh_passenger" speedFactor="0.96" vaporized=""/>
    <tripinfo id="veh33" depart="25.00" departLane="40696206#0_0" departPos="5.10" departSpeed="0.00" departDelay="0.70" arrival="244.00" arrivalLane="-59482034#1_0" arrivalPos="184.34" arrivalSpeed="5.79" duration="219.00" routeLength="1694.12" waitingTime="46.00" waitingCount="2" stopTime="0.00" timeLoss="99.21" rerouteNo="1" devices="tripinfo_veh33 routing_veh33" vType="veh_passenger" speedFactor="1.17" vaporized=""/>
    <tripinfo id="veh78" depart="58.00" departLane="81254183#12_0" departPos="5.10" departSpeed="0.00" departDelay="0.56" arrival="244.00" arrivalLane="-1427462049_0" arrivalPos="21.33" arrivalSpeed="11.09" duration="186.00" routeLength="2637.61" waitingTime="6.00" waitingCount="1" stopTime="0.00" timeLoss="47.34" rerouteNo="1" devices="tripinfo_veh78 routing_veh78" vType="veh_passenger" speedFactor="1.01" vaporized=""/>
    <tripinfo id="veh91" depart="68.00" departLane="744561216#3_0" departPos="5.10" departSpeed="0.00" departDelay="0.99" arrival="245.00" arrivalLane="970276328_0" arrivalPos="32.12" arrivalSpeed="11.27" duration="177.00" routeLength="2003.25" waitingTime="0.00" waitingCount="0" stopTime="0.00" timeLoss="23.27" rerouteNo="1" devices="tripinfo_veh91 routing_veh91" vType="veh_passenger" speedFactor="0.89" vaporized=""/>
    <tripinfo id="veh231" depart="171.00" departLane="-128220217#0_0" departPos="5.10" departSpeed="0.00" departDelay="0.89" arrival="246.00" arrivalLane="27935891#1_0" arrivalPos="52.63" arrivalSpeed="15.81" duration="75.00" routeLength="817.54" waitingTime="0.00" waitingCount="0" stopTime="0.00" timeLoss="17.20" rerouteNo="1" devices="tripinfo_veh231 routing_veh231" vType="veh_passenger" speedFactor="1.14" vaporized=""/>
    <tripinfo id="veh110" depart="81.00" departLane="-116061945#1_0" departPos="5.10" departSpeed="0.00" departDelay="0.00" arrival="247.00" arrivalLane="-290639912#4_0" arrivalPos="55.48" arrivalSpeed="18.56" duration="166.00" routeLength="1519.76" waitingTime="39.00" waitingCount="1" stopTime="0.00" timeLoss="82.27" rerouteNo="1" devices="tripinfo_veh110 routing_veh110" vType="veh_passenger" speedFactor="0.93" vaporized=""/>
    <tripinfo id="veh88" depart="65.00" departLane="-40696212#2_0" departPos="5.10" departSpeed="13.99" departDelay="0.20" arrival="248.00" arrivalLane="81254189#8_0" arrivalPos="9.01" arrivalSpeed="13.97" duration="183.00" routeLength="2529.56" waitingTime="9.00" waitingCount="1" stopTime="0.00" timeLoss="54.85" rerouteNo="1" devices="tripinfo_veh88 routing_veh88" vType="veh_passenger" speedFactor="1.01" vaporized=""/>
    <tripinfo id="veh155" depart="115.00" departLane="27935375_0" departPos="5.10" departSpeed="15.61" departDelay="0.86" arrival="248.00" arrivalLane="-571697355#0_0" arrivalPos="12.74" arrivalSpeed="10.59" duration="133.00" routeLength="1267.45" waitingTime="17.00" waitingCount="1" stopTime="0.00" timeLoss="37.22" rerouteNo="1" devices="tripinfo_veh155 routing_veh155" vType="veh_passenger" speedFactor="1.12" vaporized=""/>
    <tripinfo id="veh137" depart="101.00" departLane="-1427484094#1_0" departPos="5.10" departSpeed="0.00" departDelay="0.11" arrival="252.00" arrivalLane="694981022_0" arrivalPos="27.96" arrivalSpeed="14.00" duration="151.00" routeLength="2195.03" waitingTime="0.00" waitingCount="0" stopTime="0.00" timeLoss="27.98" rerouteNo="1" devices="tripinfo_veh137 routing_veh137" vType="veh_passenger" speedFactor="1.02" vaporized=""/>
    <tripinfo id="veh158" depart="117.00" departLane="-28120439#10_0" departPos="5.10" departSpeed="0.00" departDelay="0.65" arrival="252.00" arrivalLane="28187982#8_0" arrivalPos="6.95" arrivalSpeed="12.14" duration="135.00" routeLength="1438.18" waitingTime="0.00" waitingCount="0" stopTime="0.00" timeLoss="32.32" rerouteNo="1" devices="tripinfo_veh158 routing_veh158" vType="veh_passenger" speedFactor="0.91" vaporized=""/>
    <tripinfo id="veh248" depart="183.00" departLane="-123624220#5_0" departPos="5.10" departSpeed="0.00" departDelay="0.37" arrival="253.00" arrivalLane="794624007_0" arrivalPos="68.34" arrivalSpeed="14.94" duration="70.00" routeLength="753.55" waitingTime="0.00" waitingCount="0" stopTime="0.00" timeLoss="18.92" rerouteNo="1" devices="tripinfo_veh248 routing_veh248" vType="veh_passenger" speedFactor="1.14" vaporized=""/>
    <tripinfo id="veh193" depart="143.00" departLane="519734960_2" departPos="5.10" departSpeed="0.00" departDelay="0.88" arrival="257.00" arrivalLane="229965238_0" arrivalPos="7.16" arrivalSpeed="8.02" duration="114.00" routeLength="1648.71" waitingTime="0.00" waitingCount="0" stopTime="0.00" timeLoss="10.31" rerouteNo="1" devices="tripinfo_veh193 routing_veh193" vType="veh_passenger" speedFactor="1.07" vaporized=""/>
    <tripinfo id="veh135" depart="100.00" departLane="290638884#9_0" departPos="5.10" departSpeed="0.00" departDelay="0.59" arrival="258.00" arrivalLane="660092808_0" arrivalPos="21.69" arrivalSpeed="12.35" duration="158.00" routeLength="1738.32" waitingTime="25.00" waitingCount="3" stopTime="0.00" timeLoss="67.26" rerouteNo="1" devices="tripinfo_veh135 routing_veh135" vType="veh_passenger" speedFactor="1.01" vaporized=""/>
    <tripinfo id="veh224" depart="165.00" departLane="-28120427#2_0" departPos="5.10" departSpeed="0.00" departDelay="0.05" arrival="262.00" arrivalLane="-1322924310#1_0" arrivalPos="17.90" arrivalSpeed="9.64" duration="97.00" routeLength="1427.89" waitingTime="0.00" waitingCount="0" stopTime="0.00" timeLoss="22.32" rerouteNo="1" devices="tripinfo_veh224 routing_veh224" vType="veh_passenger" speedFactor="1.02" vaporized=""/>