<?xml version="1.0" encoding="UTF-8"?>

<!-- generated on 2025-09-20 12:54:12 by Eclipse SUMO GUI Version 1.24.0
<sumoConfiguration xmlns:xsi="http://www.w3.org/2001/XMLSchema-instance" xsi:noNamespaceSchemaLocation="http://sumo.dlr.de/xsd/sumoConfiguration.xsd">

    <input>
        <net-file value="simulation/intersection.net.xml"/>
        <route-files value="simulation/intersection.rou.xml"/>
    </input>

    <output>
        <summary-output value="outputs/intersection_before_ai_summary.xml"/>
        <tripinfo-output value="outputs/intersection_before_ai_tripinfo.xml"/>
    </output>

    <time>
        <begin value="0"/>
    </time>

    <traci_server>
        <remote-port value="8813"/>
    </traci_server>

    <gui_only>
        <start value="true"/>
    </gui_only>

</sumoConfiguration>
-->

<tripinfos xmlns:xsi="http://www.w3.org/2001/XMLSchema-instance" xsi:noNamespaceSchemaLocation="http://sumo.dlr.de/xsd/tripinfo_file.xsd">
    <tripinfo id="flow_ns.0" depart="0.00" departLane="NN_0" departPos="5.10" departSpeed="0.00" departDelay="0.00" arrival="19.00" arrivalLane="NS_0" arrivalPos="89.60" arrivalSpeed="12.70" duration="19.00" routeLength="194.90" waitingTime="0.00" waitingCount="0" stopTime="0.00" timeLoss="3.52" rerouteNo="0" devices="tripinfo_flow_ns.0 routing_flow_ns.0" vType="car" speedFactor="0.94" vaporized=""/>
    <tripinfo id="flow_ns.1" depart="9.00" departLane="NN_0" departPos="5.10" departSpeed="0.00" departDelay="0.00" arrival="30.00" arrivalLane="NS_0" arrivalPos="89.60" arrivalSpeed="11.08" duration="21.00" routeLength="194.90" waitingTime="0.00" waitingCount="0" stopTime="0.00" timeLoss="3.58" rerouteNo="0" devices="tripinfo_flow_ns.1 routing_flow_ns.1" vType="car" speedFactor="0.83" vaporized=""/>
    <tripinfo id="ev_0" depart="24.00" departLane="NS_1" departPos="6.60" departSpeed="0.00" departDelay="0.00" arrival="38.00" arrivalLane="NW_1" arrivalPos="89.60" arrivalSpeed="41.35" duration="14.00" routeLength="286.22" waitingTime="0.00" waitingCount="0" stopTime="0.00" timeLoss="-8.66" rerouteNo="1" devices="tripinfo_ev_0 routing_ev_0" vType="emergency_vehicle" speedFactor="1.00" vaporized=""/>
    <tripinfo id="flow_ns.2" depart="18.00" departLane="NN_0" departPos="5.10" departSpeed="0.00" departDelay="0.00" arrival="39.00" arrivalLane="NS_0" arrivalPos="89.60" arrivalSpeed="11.44" duration="21.00" routeLength="194.90" waitingTime="0.00" waitingCount="0" stopTime="0.00" timeLoss="3.72" rerouteNo="0" devices="tripinfo_flow_ns.2 routing_flow_ns.2" vType="car" speedFactor="0.86" vaporized=""/>
    <tripinfo id="flow_ns.3" depart="27.00" departLane="NN_0" departPos="5.10" departSpeed="0.00" departDelay="0.00" arrival="44.00" arrivalLane="NS_0" arrivalPos="89.60" arrivalSpeed="15.32" duration="17.00" routeLength="194.90" waitingTime="0.00" waitingCount="0" stopTime="0.00" timeLoss="3.81" rerouteNo="0" devices="tripinfo_flow_ns.3 routing_flow_ns.3" vType="car" speedFactor="1.12" vaporized=""/>
    <tripinfo id="flow_ns.4" depart="36.00" departLane="NN_0" departPos="5.10" departSpeed="0.00" departDelay="0.00" arrival="56.00" arrivalLane="NS_0" arrivalPos="89.60" arrivalSpeed="11.93" duration="20.00" routeLength="194.90" waitingTime="0.00" waitingCount="0" stopTime="0.00" timeLoss="4.24" rerouteNo="0" devices="tripinfo_flow_ns.4 routing_flow_ns.4" vType="car" speedFactor="0.94" vaporized=""/>
    <tripinfo id="flow_ns.5" depart="45.00" departLane="NN_0" departPos="5.10" departSpeed="0.00" departDelay="0.00" arrival="64.00" arrivalLane="NS_0" arrivalPos="89.60" arrivalSpeed="13.99" duration="19.00" routeLength="194.90" waitingTime="0.00" waitingCount="0" stopTime="0.00" timeLoss="4.21" rerouteNo="0" devices="tripinfo_flow_ns.5 routing_flow_ns.5" vType="car" speedFactor="1.01" vaporized=""/>
    <tripinfo id="ev_1" depart="55.00" departLane="NS_1" departPos="6.60" departSpeed="0.00" departDelay="0.00" arrival="68.00" arrivalLane="NN_out_1" arrivalPos="89.60" arrivalSpeed="41.74" duration="13.00" routeLength="287.67" waitingTime="0.00" waitingCount="0" stopTime="0.00" timeLoss="-7.98" rerouteNo="1" devices="tripinfo_ev_1 routing_ev_1" vType="emergency_vehicle" speedFactor="1.00" vaporized=""/>
    <tripinfo id="flow_ns.6" depart="54.00" departLane="NN_0" departPos="5.10" departSpeed="0.00" departDelay="0.00" arrival="74.00" arrivalLane="NS_0" arrivalPos="89.60" arrivalSpeed="10.91" duration="20.00" routeLength="194.90" waitingTime="0.00" waitingCount="0" stopTime="0.00" timeLoss="3.69" rerouteNo="0" devices="tripinfo_flow_ns.6 routing_flow_ns.6" vType="car" speedFactor="0.87" vaporized=""/>
    <tripinfo id="flow_ns.7" depart="63.00" departLane="NN_0" departPos="5.10" departSpeed="0.00" departDelay="0.00" arrival="82.00" arrivalLane="NS_0" arrivalPos="89.60" arrivalSpeed="12.13" duration="19.00" routeLength="194.90" waitingTime="0.00" waitingCount="0" stopTime="0.00" timeLoss="3.18" rerouteNo="0" devices="tripinfo_flow_ns.7 routing_flow_ns.7" vType="car" speedFactor="0.93" vaporized=""/>
    <tripinfo id="flow_ns.8" depart="72.00" departLane="NN_0" departPos="5.10" departSpeed="0.00" departDelay="0.00" arrival="88.00" arrivalLane="NS_0" arrivalPos="89.60" arrivalSpeed="16.26" duration="16.00" routeLength="194.90" waitingTime="0.00" waitingCount="0" stopTime="0.00" timeLoss="3.48" rerouteNo="0" devices="tripinfo_flow_ns.8 routing_flow_ns.8" vType="car" speedFactor="1.17" vaporized=""/>
    <tripinfo id="flow_ns.9" depart="81.00" departLane="NN_0" departPos="5.10" departSpeed="0.00" departDelay="0.00" arrival="98.00" arrivalLane="NS_0" arrivalPos="89.60" arrivalSpeed="15.88" duration="17.00" routeLength="194.90" waitingTime="0.00" waitingCount="0" stopTime="0.00" timeLoss="4.60" rerouteNo="0" devices="tripinfo_flow_ns.9 routing_flow_ns.9" vType="car" speedFactor="1.18" vaporized=""/>
    <tripinfo id="flow_ns.10" depart="90.00" departLane="NN_0" departPos="5.10" departSpeed="0.00" departDelay="0.00" arrival="108.00" arrivalLane="NS_0" arrivalPos="89.60" arrivalSpeed="12.51" duration="18.00" routeLength="194.90" waitingTime="0.00" waitingCount="0" stopTime="0.00" timeLoss="3.20" rerouteNo="0" devices="tripinfo_flow_ns.10 routing_flow_ns.10" vType="car" speedFactor="0.96" vaporized=""/>
    <tripinfo id="flow_ns.11" depart="99.00" departLane="NN_0" departPos="5.10" departSpeed="0.00" departDelay="0.00" arrival="116.00" arrivalLane="NS_0" arrivalPos="89.60" arrivalSpeed="14.38" duration="17.00" routeLength="194.90" waitingTime="0.00" waitingCount="0" stopTime="0.00" timeLoss="4.07" rerouteNo="0" devices="tripinfo_flow_ns.11 routing_flow_ns.11" vType="car" speedFactor="1.09" vaporized=""/>
    <tripinfo id="flow_ns.12" depart="108.00" departLane="NN_0" departPos="5.10" departSpeed="0.00" departDelay="0.00" arrival="129.00" arrivalLane="NS_0" arrivalPos="89.60" arrivalSpeed="10.91" duration="21.00" routeLength="194.90" waitingTime="0.00" waitingCount="0" stopTime="0.00" timeLoss="3.81" rerouteNo="0" devices="tripinfo_flow_ns.12 routing_flow_ns.12" vType="car" speedFactor="0.85" vaporized=""/>
    <tripinfo id="flow_we.0" depart="0.00" departLane="WN_0" departPos="5.10" departSpeed="0.00" departDelay="0.00" arrival="134.00" arrivalLane="NE_0" arrivalPos="89.60" arrivalSpeed="14.59" duration="134.00" routeLength="194.90" waitingTime="109.00" waitingCount="1" stopTime="0.00" timeLoss="119.96" rerouteNo="0" devices="tripinfo_flow_we.0 routing_flow_we.0" vType="car" speedFactor="1.06" vaporized=""/>
    <tripinfo id="flow_we.1" depart="3.00" departLane="WN_0" departPos="5.10" departSpeed="0.00" departDelay="0.00" arrival="134.00" arrivalLane="NE_1" arrivalPos="89.60" arrivalSpeed="13.41" duration="131.00" routeLength="194.90" waitingTime="106.00" waitingCount="1" stopTime="0.00" timeLoss="116.31" rerouteNo="0" devices="tripinfo_flow_we.1 routing_flow_we.1" vType="car" speedFactor="1.01" vaporized=""/>
    <tripinfo id="flow_we.3" depart="9.00" departLane="WN_0" departPos="5.10" departSpeed="0.00" departDelay="0.00" arrival="135.00" arrivalLane="NE_1" arrivalPos="89.60" arrivalSpeed="14.00" duration="126.00" routeLength="194.90" waitingTime="103.00" waitingCount="1" stopTime="0.00" timeLoss="112.29" rerouteNo="0" devices="tripinfo_flow_we.3 routing_flow_we.3" vType="car" speedFactor="1.03" vaporized=""/>
    <tripinfo id="flow_we.2" depart="6.00" departLane="WN_0" departPos="5.10" departSpeed="0.00" departDelay="0.00" arrival="136.00" arrivalLane="NE_0" arrivalPos="89.60" arrivalSpeed="13.76" duration="130.00" routeLength="194.90" waitingTime="105.00" waitingCount="1" stopTime="0.00" timeLoss="116.44" rerouteNo="0" devices="tripinfo_flow_we.2 routing_flow_we.2" vType="car" speedFactor="1.08" vaporized=""/>
    <tripinfo id="flow_we.4" depart="12.00" departLane="WN_0" departPos="5.10" departSpeed="0.00" departDelay="0.00" arrival="138.00" arrivalLane="NE_0" arrivalPos="89.60" arrivalSpeed="13.82" duration="126.00" routeLength="194.90" waitingTime="100.00" waitingCount="1" stopTime="0.00" timeLoss="111.80" rerouteNo="0" devices="tripinfo_flow_we.4 routing_flow_we.4" vType="car" speedFactor="1.05" vaporized=""/>
    <tripinfo id="flow_we.5" depart="15.00" departLane="WN_0" departPos="5.10" departSpeed="0.00" departDelay="0.00" arrival="139.00" arrivalLane="NE_1" arrivalPos="89.60" arrivalSpeed="11.47" duration="124.00" routeLength="194.90" waitingTime="98.00" waitingCount="1" stopTime="0.00" timeLoss="107.25" rerouteNo="0" devices="tripinfo_flow_we.5 routing_flow_we.5" vType="car" speedFactor="0.89" vaporized=""/>
    <tripinfo id="flow_we.6" depart="18.00" departLane="WN_0" departPos="5.10" departSpeed="0.00" departDelay="0.00" arrival="140.00" arrivalLane="NE_0" arrivalPos="89.60" arrivalSpeed="12.62" duration="122.00" routeLength="194.90" waitingTime="97.00" waitingCount="1" stopTime="0.00" timeLoss="106.62" rerouteNo="0" devices="tripinfo_flow_we.6 routing_flow_we.6" vType="car" speedFactor="0.94" vaporized=""/>
    <tripinfo id="flow_we.7" depart="21.00" departLane="WN_0" departPos="5.10" departSpeed="0.00" departDelay="0.00" arrival="140.00" arrivalLane="NE_1" arrivalPos="89.60" arrivalSpeed="13.94" duration="119.00" routeLength="194.90" waitingTime="92.00" waitingCount="1" stopTime="0.00" timeLoss="105.83" rerouteNo="0" devices="tripinfo_flow_we.7 routing_flow_we.7" vType="car" speedFactor="1.09" vaporized=""/>
    <tripinfo id="flow_we.8" depart="24.00" departLane="WN_0" departPos="5.10" departSpeed="0.00" departDelay="0.00" arrival="142.00" arrivalLane="NE_0" arrivalPos="89.60" arrivalSpeed="13.65" duration="118.00" routeLength="194.90" waitingTime="91.00" waitingCount="1" stopTime="0.00" timeLoss="103.78" rerouteNo="0" devices="tripinfo_flow_we.8 routing_flow_we.8" vType="car" speedFactor="1.03" vaporized=""/>
    <tripinfo id="flow_we.9" depart="27.00" departLane="WN_0" departPos="5.10" departSpeed="0.00" departDelay="0.00" arrival="142.00" arrivalLane="NE_1" arrivalPos="89.60" arrivalSpeed="14.26" duration="115.00" routeLength="194.90" waitingTime="90.00" waitingCount="1" stopTime="0.00" timeLoss="101.03" rerouteNo="0" devices="tripinfo_flow_we.9 routing_flow_we.9" vType="car" speedFactor="1.05" vaporized=""/>
    <tripinfo id="flow_we.10" depart="30.00" departLane="WN_0" departPos="5.10" departSpeed="0.00" departDelay="0.00" arrival="144.00" arrivalLane="NE_0" arrivalPos="89.60" arrivalSpeed="12.71" duration="114.00" routeLength="194.90" waitingTime="89.00" waitingCount="1" stopTime="0.00" timeLoss="99.47" rerouteNo="0" devices="tripinfo_flow_we.10 routing_flow_we.10" vType="car" speedFactor="0.99" vaporized=""/>
    <tripinfo id="flow_we.11" depart="33.00" departLane="WN_0" departPos="5.10" departSpeed="0.00" departDelay="0.00" arrival="144.00" arrivalLane="NE_1" arrivalPos="89.60" arrivalSpeed="11.95" duration="111.00" routeLength="194.90" waitingTime="87.00" waitingCount="1" stopTime="0.00" timeLoss="95.18" rerouteNo="0" devices="tripinfo_flow_we.11 routing_flow_we.11" vType="car" speedFactor="0.93" vaporized=""/>
    <tripinfo id="flow_we.13" depart="39.00" departLane="WN_0" departPos="5.10" departSpeed="0.00" departDelay="0.00" arrival="146.00" arrivalLane="NE_1" arrivalPos="89.60" arrivalSpeed="12.56" duration="107.00" routeLength="194.90" waitingTime="81.00" waitingCount="1" stopTime="0.00" timeLoss="91.09" rerouteNo="0" devices="tripinfo_flow_we.13 routing_flow_we.13" vType="car" speedFactor="0.94" vaporized=""/>
    <tripinfo id="flow_we.12" depart="36.00" departLane="WN_0" departPos="5.10" departSpeed="0.00" departDelay="0.00" arrival="147.00" arrivalLane="NE_0" arrivalPos="89.60" arrivalSpeed="12.11" duration="111.00" routeLength="194.90" waitingTime="84.00" waitingCount="1" stopTime="0.00" timeLoss="94.56" rerouteNo="0" devices="tripinfo_flow_we.12 routing_flow_we.12" vType="car" speedFactor="0.88" vaporized=""/>
    <tripinfo id="flow_we.15" depart="45.00" departLane="WN_0" departPos="5.10" departSpeed="0.00" departDelay="0.00" arrival="147.00" arrivalLane="NE_1" arrivalPos="89.60" arrivalSpeed="13.88" duration="102.00" routeLength="194.90" waitingTime="76.00" waitingCount="1" stopTime="0.00" timeLoss="87.90" rerouteNo="0" devices="tripinfo_flow_we.15 routing_flow_we.15" vType="car" speedFactor="1.02" vaporized=""/>
    <tripinfo id="flow_we.14" depart="42.00" departLane="WN_0" departPos="5.10" departSpeed="0.00" departDelay="0.00" arrival="149.00" arrivalLane="NE_0" arrivalPos="89.60" arrivalSpeed="15.50" duration="107.00" routeLength="194.90" waitingTime="79.00" waitingCount="1" stopTime="0.00" timeLoss="94.05" rerouteNo="0" devices="tripinfo_flow_we.14 routing_flow_we.14" vType="car" speedFactor="1.16" vaporized=""/>
    <tripinfo id="flow_we.17" depart="51.00" departLane="WN_0" departPos="5.10" departSpeed="0.00" departDelay="0.00" arrival="149.00" arrivalLane="NE_1" arrivalPos="89.60" arrivalSpeed="12.17" duration="98.00" routeLength="194.90" waitingTime="72.00" waitingCount="1" stopTime="0.00" timeLoss="82.16" rerouteNo="0" devices="tripinfo_flow_we.17 routing_flow_we.17" vType="car" speedFactor="0.89" vaporized=""/>
    <tripinfo id="flow_we.16" depart="48.00" departLane="WN_0" departPos="5.10" departSpeed="0.00" departDelay="0.00" arrival="150.00" arrivalLane="NE_0" arrivalPos="89.60" arrivalSpeed="12.42" duration="102.00" routeLength="194.90" waitingTime="76.00" waitingCount="1" stopTime="0.00" timeLoss="87.60" rerouteNo="0" devices="tripinfo_flow_we.16 routing_flow_we.16" vType="car" speedFactor="0.97" vaporized=""/>
    <tripinfo id="flow_we.19" depart="57.00" departLane="WN_0" departPos="5.10" departSpeed="0.00" departDelay="0.00" arrival="151.00" arrivalLane="NE_1" arrivalPos="89.60" arrivalSpeed="11.58" duration="94.00" routeLength="194.90" waitingTime="68.00" waitingCount="1" stopTime="0.00" timeLoss="78.41" rerouteNo="0" devices="tripinfo_flow_we.19 routing_flow_we.19" vType="car" speedFactor="0.92" vaporized=""/>
    <tripinfo id="flow_we.21" depart="123.00" departLane="WN_0" departPos="5.10" departSpeed="0.00" departDelay="60.00" arrival="153.00" arrivalLane="NE_1" arrivalPos="89.60" arrivalSpeed="15.62" duration="30.00" routeLength="194.90" waitingTime="5.00" waitingCount="1" stopTime="0.00" timeLoss="16.73" rerouteNo="0" devices="tripinfo_flow_we.21 routing_flow_we.21" vType="car" speedFactor="1.13" vaporized=""/>
    <tripinfo id="flow_we.18" depart="54.00" departLane="WN_0" departPos="5.10" departSpeed="0.00" departDelay="0.00" arrival="154.00" arrivalLane="NE_0" arrivalPos="89.60" arrivalSpeed="11.34" duration="100.00" routeLength="194.90" waitingTime="71.00" waitingCount="1" stopTime="0.00" timeLoss="82.04" rerouteNo="0" devices="tripinfo_flow_we.18 routing_flow_we.18" vType="car" speedFactor="0.83" vaporized=""/>
    <tripinfo id="flow_we.22" depart="124.00" departLane="WN_0" departPos="5.10" departSpeed="0.00" departDelay="58.00" arrival="154.00" arrivalLane="NE_1" arrivalPos="89.60" arrivalSpeed="15.90" duration="30.00" routeLength="194.90" waitingTime="9.00" waitingCount="1" stopTime="0.00" timeLoss="17.85" rerouteNo="0" devices="tripinfo_flow_we.22 routing_flow_we.22" vType="car" speedFactor="1.18" vaporized=""/>
    <tripinfo id="flow_we.20" depart="60.00" departLane="WN_0" departPos="5.10" departSpeed="0.00" departDelay="0.00" arrival="155.00" arrivalLane="NE_0" arrivalPos="89.60" arrivalSpeed="12.07" duration="95.00" routeLength="194.90" waitingTime="67.00" waitingCount="1" stopTime="0.00" timeLoss="80.00" rerouteNo="0" devices="tripinfo_flow_we.20 routing_flow_we.20" vType="car" speedFactor="0.95" vaporized=""/>
    <tripinfo id="flow_we.23" depart="137.00" departLane="WN_0" departPos="5.10" departSpeed="0.00" departDelay="68.00" arrival="157.00" arrivalLane="NE_0" arrivalPos="89.60" arrivalSpeed="14.08" duration="20.00" routeLength="194.90" waitingTime="0.00" waitingCount="0" stopTime="0.00" timeLoss="7.40" rerouteNo="0" devices="tripinfo_flow_we.23 routing_flow_we.23" vType="car" speedFactor="1.15" vaporized=""/>
    <tripinfo id="flow_we.24" depart="140.00" departLane="WN_0" departPos="5.10" departSpeed="0.00" departDelay="68.00" arrival="159.00" arrivalLane="NE_0" arrivalPos="89.60" arrivalSpeed="12.78" duration="19.00" routeLength="194.90" waitingTime="0.00" waitingCount="0" stopTime="0.00" timeLoss="4.43" rerouteNo="0" devices="tripinfo_flow_we.24 routing_flow_we.24" vType="car" speedFactor="1.01" vaporized=""/>
    <tripinfo id="flow_we.25" depart="143.00" departLane="WN_0" departPos="5.10" departSpeed="0.00" departDelay="68.00" arrival="161.00" arrivalLane="NE_0" arrivalPos="89.60" arrivalSpeed="12.95" duration="18.00" routeLength="194.90" waitingTime="0.00" waitingCount="0" stopTime="0.00" timeLoss="3.72" rerouteNo="0" devices="tripinfo_flow_we.25 routing_flow_we.25" vType="car" speedFactor="0.99" vaporized=""/>
    <tripinfo id="flow_we.26" depart="146.00" departLane="WN_0" departPos="5.10" departSpeed="0.00" departDelay="68.00" arrival="164.00" arrivalLane="NE_0" arrivalPos="89.60" arrivalSpeed="13.53" duration="18.00" routeLength="194.90" waitingTime="0.00" waitingCount="0" stopTime="0.00" timeLoss="3.44" rerouteNo="0" devices="tripinfo_flow_we.26 routing_flow_we.26" vType="car" speedFactor="1.02" vaporized=""/>
    <tripinfo id="flow_we.27" depart="149.00" departLane="WN_0" departPos="5.10" departSpeed="0.00" departDelay="68.00" arrival="167.00" arrivalLane="NE_0" arrivalPos="89.60" arrivalSpeed="12.77" duration="18.00" routeLength="194.90" waitingTime="0.00" waitingCount="0" stopTime="0.00" timeLoss="3.22" rerouteNo="0" devices="tripinfo_flow_we.27 routing_flow_we.27" vType="car" speedFactor="0.97" vaporized=""/>
    <tripinfo id="flow_we.28" depart="152.00" departLane="WN_0" departPos="5.10" departSpeed="0.00" departDelay="68.00" arrival="169.00" arrivalLane="NE_0" arrivalPos="89.60" arrivalSpeed="14.12" duration="17.00" routeLength="194.90" waitingTime="0.00" waitingCount="0" stopTime="0.00" timeLoss="3.70" rerouteNo="0" devices="tripinfo_flow_we.28 routing_flow_we.28" vType="car" speedFactor="1.10" vaporized=""/>
    <tripinfo id="flow_we.29" depart="155.00" departLane="WN_0" departPos="5.10" departSpeed="0.00" departDelay="68.00" arrival="175.00" arrivalLane="NE_0" arrivalPos="89.60" arrivalSpeed="12.31" duration="20.00" routeLength="194.90" waitingTime="0.00" waitingCount="0" stopTime="0.00" timeLoss="3.77" rerouteNo="0" devices="tripinfo_flow_we.29 routing_flow_we.29" vType="car" speedFactor="0.90" vaporized=""/>
    <tripinfo id="flow_we.30" depart="158.00" departLane="WN_0" departPos="5.10" departSpeed="0.00" departDelay="68.00" arrival="177.00" arrivalLane="NE_0" arrivalPos="89.60" arrivalSpeed="13.54" duration="19.00" routeLength="194.90" waitingTime="0.00" waitingCount="0" stopTime="0.00" timeLoss="4.55" rerouteNo="0" devices="tripinfo_flow_we.30 routing_flow_we.30" vType="car" speedFactor="1.03" vaporized=""/>
    <tripinfo id="flow_we.31" depart="161.00" departLane="WN_0" departPos="5.10" departSpeed="0.00" departDelay="68.00" arrival="179.00" arrivalLane="NE_0" arrivalPos="89.60" arrivalSpeed="14.15" duration="18.00" routeLength="194.90" waitingTime="0.00" waitingCount="0" stopTime="0.00" timeLoss="4.28" rerouteNo="0" devices="tripinfo_flow_we.31 routing_flow_we.31" vType="car" speedFactor="1.09" vaporized=""/>
    <tripinfo id="flow_we.32" depart="164.00" departLane="WN_0" departPos="5.10" departSpeed="0.00" departDelay="68.00" arrival="182.00" arrivalLane="NE_0" arrivalPos="89.60" arrivalSpeed="13.64" duration="18.00" routeLength="194.90" waitingTime="0.00" waitingCount="0" stopTime="0.00" timeLoss="3.85" rerouteNo="0" devices="tripinfo_flow_we.32 routing_flow_we.32" vType="car" speedFactor="1.04" vaporized=""/>
    <tripinfo id="flow_we.33" depart="167.00" departLane="WN_0" departPos="5.10" departSpeed="0.00" departDelay="68.00" arrival="184.00" arrivalLane="NE_0" arrivalPos="89.60" arrivalSpeed="14.02" duration="17.00" routeLength="194.90" waitingTime="0.00" waitingCount="0" stopTime="0.00" timeLoss="3.20" rerouteNo="0" devices="tripinfo_flow_we.33 routing_flow_we.33" vType="car" speedFactor="1.04" vaporized=""/>
    <tripinfo id="flow_we.34" depart="170.00" departLane="WN_0" departPos="5.10" departSpeed="0.00" departDelay="68.00" arrival="188.00" arrivalLane="NE_0" arrivalPos="89.60" arrivalSpeed="12.87" duration="18.00" routeLength="194.90" waitingTime="0.00" waitingCount="0" stopTime="0.00" timeLoss="3.58" rerouteNo="0" devices="tripinfo_flow_we.34 routing_flow_we.34" vType="car" speedFactor="1.00" vaporized=""/>
    <tripinfo id="flow_we.35" depart="173.00" departLane="WN_0" departPos="5.10" departSpeed="0.00" departDelay="68.00" arrival="193.00" arrivalLane="NE_0" arrivalPos="89.60" arrivalSpeed="11.60" duration="20.00" routeLength="194.90" waitingTime="0.00" waitingCount="0" stopTime="0.00" timeLoss="3.54" rerouteNo="0" devices="tripinfo_flow_we.35 routing_flow_we.35" vType="car" speedFactor="0.90" vaporized=""/>
    <tripinfo id="flow_we.36" depart="176.00" departLane="WN_0" departPos="5.10" departSpeed="0.00" departDelay="68.00" arrival="195.00" arrivalLane="NE_0" arrivalPos="89.60" arrivalSpeed="11.27" duration="19.00" routeLength="194.90" waitingTime="0.00" waitingCount="0" stopTime="0.00" timeLoss="2.98" rerouteNo="0" devices="tripinfo_flow_we.36 routing_flow_we.36" vType="car" speedFactor="0.88" vaporized=""/>
    <tripinfo id="flow_we.37" depart="179.00" departLane="WN_0" departPos="5.10" departSpeed="0.00" departDelay="68.00" arrival="199.00" arrivalLane="NE_0" arrivalPos="89.60" arrivalSpeed="11.19" duration="20.00" routeLength="194.90" waitingTime="0.00" waitingCount="0" stopTime="0.00" timeLoss="3.22" rerouteNo="0" devices="tripinfo_flow_we.37 routing_flow_we.37" vType="car" speedFactor="0.85" vaporized=""/>
    <tripinfo id="flow_we.38" depart="182.00" departLane="WN_0" departPos="5.10" departSpeed="0.00" departDelay="68.00" arrival="201.00" arrivalLane="NE_0" arrivalPos="89.60" arrivalSpeed="15.76" duration="19.00" routeLength="194.90" waitingTime="0.00" waitingCount="0" stopTime="0.00" timeLoss="6.20" rerouteNo="0" devices="tripinfo_flow_we.38 routing_flow_we.38" vType="car" speedFactor="1.17" vaporized=""/>
    <tripinfo id="flow_we.39" depart="185.00" departLane="WN_0" departPos="5.10" departSpeed="0.00" departDelay="68.00" arrival="203.00" arrivalLane="NE_0" arrivalPos="89.60" arrivalSpeed="12.93" duration="18.00" routeLength="194.90" waitingTime="0.00" waitingCount="0" stopTime="0.00" timeLoss="3.41" rerouteNo="0" devices="tripinfo_flow_we.39 routing_flow_we.39" vType="car" speedFactor="1.02" vaporized=""/>
    <tripinfo id="flow_we.40" depart="188.00" departLane="WN_0" departPos="5.10" departSpeed="0.00" departDelay="68.00" arrival="206.00" arrivalLane="NE_0" arrivalPos="89.60" arrivalSpeed="13.40" duration="18.00" routeLength="194.90" waitingTime="0.00" waitingCount="0" stopTime="0.00" timeLoss="3.15" rerouteNo="0" devices="tripinfo_flow_we.40 routing_flow_we.40" vType="car" speedFactor="1.00" vaporized=""/>
    <tripinfo id="flow_we.41" depart="191.00" departLane="WN_0" departPos="5.10" departSpeed="0.00" departDelay="68.00" arrival="209.00" arrivalLane="NE_0" arrivalPos="89.60" arrivalSpeed="13.51" duration="18.00" routeLength="194.90" waitingTime="0.00" waitingCount="0" stopTime="0.00" timeLoss="3.79" rerouteNo="0" devices="tripinfo_flow_we.41 routing_flow_we.41" vType="car" speedFactor="1.00" vaporized=""/>
    <tripinfo id="flow_we.42" depart="194.00" departLane="WN_0" departPos="5.10" departSpeed="0.00" departDelay="68.00" arrival="214.00" arrivalLane="NE_0" arrivalPos="89.60" arrivalSpeed="12.34" duration="20.00" routeLength="194.90" waitingTime="0.00" waitingCount="0" stopTime="0.00" timeLoss="3.76" rerouteNo="0" devices="tripinfo_flow_we.42 routing_flow_we.42" vType="car" speedFactor="0.90" vaporized=""/>
    <tripinfo id="flow_we.43" depart="197.00" departLane="WN_0" departPos="5.10" departSpeed="0.00" departDelay="68.00" arrival="215.00" arrivalLane="NE_0" arrivalPos="89.60" arrivalSpeed="13.62" duration="18.00" routeLength="194.90" waitingTime="0.00" waitingCount="0" stopTime="0.00" timeLoss="4.28" rerouteNo="0" devices="tripinfo_flow_we.43 routing_flow_we.43" vType="car" speedFactor="1.02" vaporized=""/>
    <tripinfo id="flow_we.44" depart="200.00" departLane="WN_0" departPos="5.10" departSpeed="0.00" departDelay="68.00" arrival="218.00" arrivalLane="NE_0" arrivalPos="89.60" arrivalSpeed="13.31" duration="18.00" routeLength="194.90" waitingTime="0.00" waitingCount="0" stopTime="0.00" timeLoss="3.16" rerouteNo="0" devices="tripinfo_flow_we.44 routing_flow_we.44" vType="car" speedFactor="0.97" vaporized=""/>
    <tripinfo id="flow_we.45" depart="203.00" departLane="WN_0" departPos="5.10" departSpeed="0.00" departDelay="68.00" arrival="220.00" arrivalLane="NE_0" arrivalPos="89.60" arrivalSpeed="14.89" duration="17.00" routeLength="194.90" waitingTime="0.00" waitingCount="0" stopTime="0.00" timeLoss="3.57" rerouteNo="0" devices="tripinfo_flow_we.45 routing_flow_we.45" vType="car" speedFactor="1.08" vaporized=""/>
    <tripinfo id="flow_we.46" depart="206.00" departLane="WN_0" departPos="5.10" departSpeed="0.00" departDelay="68.00" arrival="224.00" arrivalLane="NE_0" arrivalPos="89.60" arrivalSpeed="12.82" duration="18.00" routeLength="194.90" waitingTime="0.00" waitingCount="0" stopTime="0.00" timeLoss="4.15" rerouteNo="0" devices="tripinfo_flow_we.46 routing_flow_we.46" vType="car" speedFactor="1.02" vaporized=""/>
    <tripinfo id="flow_we.47" depart="209.00" departLane="WN_0" departPos="5.10" departSpeed="0.00" departDelay="68.00" arrival="228.00" arrivalLane="NE_0" arrivalPos="89.60" arrivalSpeed="13.63" duration="19.00" routeLength="194.90" waitingTime="0.00" waitingCount="0" stopTime="0.00" timeLoss="4.13" rerouteNo="0" devices="tripinfo_flow_we.47 routing_flow_we.47" vType="car" speedFactor="0.99" vaporized=""/>
    <tripinfo id="flow_we.48" depart="212.00" departLane="WN_0" departPos="5.10" departSpeed="0.00" departDelay="68.00" arrival="232.00" arrivalLane="NE_0" arrivalPos="89.60" arrivalSpeed="12.63" duration="20.00" routeLength="194.90" waitingTime="0.00" waitingCount="0" stopTime="0.00" timeLoss="4.24" rerouteNo="0" devices="tripinfo_flow_we.48 routing_flow_we.48" vType="car" speedFactor="0.94" vaporized=""/>
    <tripinfo id="flow_we.49" depart="216.00" departLane="WN_0" departPos="5.10" departSpeed="0.00" departDelay="69.00" arrival="235.00" arrivalLane="NE_0" arrivalPos="89.60" arrivalSpeed="12.47" duration="19.00" routeLength="194.90" waitingTime="0.00" waitingCount="0" stopTime="0.00" timeLoss="3.38" rerouteNo="0" devices="tripinfo_flow_we.49 routing_flow_we.49" vType="car" speedFactor="0.91" vaporized=""/>
    <tripinfo id="flow_we.50" depart="219.00" departLane="WN_0" departPos="5.10" departSpeed="0.00" departDelay="69.00" arrival="238.00" arrivalLane="NE_0" arrivalPos="89.60" arrivalSpeed="12.54" duration="19.00" routeLength="194.90" waitingTime="0.00" waitingCount="0" stopTime="0.00" timeLoss="3.18" rerouteNo="0" devices="tripinfo_flow_we.50 routing_flow_we.50" vType="car" speedFactor="0.91" vaporized=""/>
    <tripinfo id="flow_we.51" depart="222.00" departLane="WN_0" departPos="5.10" departSpeed="0.00" departDelay="69.00" arrival="240.00" arrivalLane="NE_0" arrivalPos="89.60" arrivalSpeed="13.93" duration="18.00" routeLength="194.90" waitingTime="0.00" waitingCount="0" stopTime="0.00" timeLoss="3.86" rerouteNo="0" devices="tripinfo_flow_we.51 routing_flow_we.51" vType="car" speedFactor="1.04" vaporized=""/>
    <tripinfo id="flow_we.52" depart="225.00" departLane="WN_0" departPos="5.10" departSpeed="0.00" departDelay="69.00" arrival="243.00" arrivalLane="NE_0" arrivalPos="89.60" arrivalSpeed="14.11" duration="18.00" routeLength="194.90" waitingTime="0.00" waitingCount="0" stopTime="0.00" timeLoss="3.36" rerouteNo="0" devices="tripinfo_flow_we.52 routing_flow_we.52" vType="car" speedFactor="1.02" vaporized=""/>
    <tripinfo id="flow_we.53" depart="228.00" departLane="WN_0" departPos="5.10" departSpeed="0.00" departDelay="69.00" arrival="247.00" arrivalLane="NE_0" arrivalPos="89.60" arrivalSpeed="12.28" duration="19.00" routeLength="194.90" waitingTime="0.00" waitingCount="0" stopTime="0.00" timeLoss="3.86" rerouteNo="0" devices="tripinfo_flow_we.53 routing_flow_we.53" vType="car" speedFactor="0.97" vaporized=""/>
    <tripinfo id="flow_we.54" depart="231.00" departLane="WN_0" departPos="5.10" departSpeed="0.00" departDelay="69.00" arrival="250.00" arrivalLane="NE_0" arrivalPos="89.60" arrivalSpeed="12.19" duration="19.00" routeLength="194.90" waitingTime="0.00" waitingCount="0" stopTime="0.00" timeLoss="3.32" rerouteNo="0" devices="tripinfo_flow_we.54 routing_flow_we.54" vType="car" speedFactor="0.94" vaporized=""/>