<?xml version="1.0" encoding="UTF-8"?>

<!-- generated on 2025-09-20 12:54:45 by Eclipse SUMO GUI Version 1.24.0
<sumoConfiguration xmlns:xsi="http://www.w3.org/2001/XMLSchema-instance" xsi:noNamespaceSchemaLocation="http://sumo.dlr.de/xsd/sumoConfiguration.xsd">

    <input>
        <net-file value="simulation/intersection.net.xml"/>
        <route-files value="simulation/intersection.rou.xml"/>
    </input>

    <output>
        <summary-output value="outputs/intersection_after_ai_summary.xml"/>
        <tripinfo-output value="outputs/intersection_after_ai_tripinfo.xml"/>
    </output>

    <time>
        <begin value="0"/>
    </time>

    <traci_server>
        <remote-port value="8813"/>
    </traci_server>

    <gui_only>
        <start value="true"/>
    </gui_only>

</sumoConfiguration>
-->

<tripinfos xmlns:xsi="http://www.w3.org/2001/XMLSchema-instance" xsi:noNamespaceSchemaLocation="http://sumo.dlr.de/xsd/tripinfo_file.xsd">
    <tripinfo id="flow_ns.0" depart="0.00" departLane="NN_0" departPos="5.10" departSpeed="0.00" departDelay="0.00" arrival="19.00" arrivalLane="NS_0" arrivalPos="89.60" arrivalSpeed="12.70" duration="19.00" routeLength="194.90" waitingTime="0.00" waitingCount="0" stopTime="0.00" timeLoss="3.52" rerouteNo="0" devices="tripinfo_flow_ns.0 routing_flow_ns.0" vType="car" speedFactor="0.94" vaporized=""/>
    <tripinfo id="flow_ns.1" depart="9.00" departLane="NN_0" departPos="5.10" departSpeed="0.00" departDelay="0.00" arrival="30.00" arrivalLane="NS_0" arrivalPos="89.60" arrivalSpeed="11.08" duration="21.00" routeLength="194.90" waitingTime="0.00" waitingCount="0" stopTime="0.00" timeLoss="3.58" rerouteNo="0" devices="tripinfo_flow_ns.1 routing_flow_ns.1" vType="car" speedFactor="0.83" vaporized=""/>
    <tripinfo id="flow_ns.2" depart="18.00" departLane="NN_0" departPos="5.10" departSpeed="0.00" departDelay="0.00" arrival="39.00" arrivalLane="NS_0" arrivalPos="89.60" arrivalSpeed="11.44" duration="21.00" routeLength="194.90" waitingTime="0.00" waitingCount="0" stopTime="0.00" timeLoss="3.72" rerouteNo="0" devices="tripinfo_flow_ns.2 routing_flow_ns.2" vType="car" speedFactor="0.86" vaporized=""/>
    <tripinfo id="flow_we.1" depart="3.00" departLane="WN_0" departPos="5.10" departSpeed="0.00" departDelay="0.00" arrival="46.00" arrivalLane="NE_1" arrivalPos="89.60" arrivalSpeed="12.75" duration="43.00" routeLength="194.90" waitingTime="19.00" waitingCount="1" stopTime="0.00" timeLoss="28.92" rerouteNo="0" devices="tripinfo_flow_we.1 routing_flow_we.1" vType="car" speedFactor="1.01" vaporized=""/>
    <tripinfo id="flow_we.0" depart="0.00" departLane="WN_0" departPos="5.10" departSpeed="0.00" departDelay="0.00" arrival="47.00" arrivalLane="NE_0" arrivalPos="89.60" arrivalSpeed="14.59" duration="47.00" routeLength="194.90" waitingTime="22.00" waitingCount="1" stopTime="0.00" timeLoss="32.89" rerouteNo="0" devices="tripinfo_flow_we.0 routing_flow_we.0" vType="car" speedFactor="1.06" vaporized=""/>
    <tripinfo id="flow_we.3" depart="9.00" departLane="WN_0" departPos="5.10" departSpeed="0.00" departDelay="0.00" arrival="48.00" arrivalLane="NE_1" arrivalPos="89.60" arrivalSpeed="14.00" duration="39.00" routeLength="194.90" waitingTime="16.00" waitingCount="1" stopTime="0.00" timeLoss="25.18" rerouteNo="0" devices="tripinfo_flow_we.3 routing_flow_we.3" vType="car" speedFactor="1.03" vaporized=""/>
    <tripinfo id="flow_we.2" depart="6.00" departLane="WN_0" departPos="5.10" departSpeed="0.00" departDelay="0.00" arrival="49.00" arrivalLane="NE_0" arrivalPos="89.60" arrivalSpeed="14.15" duration="43.00" routeLength="194.90" waitingTime="18.00" waitingCount="1" stopTime="0.00" timeLoss="29.22" rerouteNo="0" devices="tripinfo_flow_we.2 routing_flow_we.2" vType="car" speedFactor="1.08" vaporized=""/>
    <tripinfo id="flow_we.4" depart="12.00" departLane="WN_0" departPos="5.10" departSpeed="0.00" departDelay="0.00" arrival="50.00" arrivalLane="NE_0" arrivalPos="89.60" arrivalSpeed="13.92" duration="38.00" routeLength="194.90" waitingTime="13.00" waitingCount="1" stopTime="0.00" timeLoss="24.47" rerouteNo="0" devices="tripinfo_flow_we.4 routing_flow_we.4" vType="car" speedFactor="1.05" vaporized=""/>
    <tripinfo id="flow_we.5" depart="15.00" departLane="WN_0" departPos="5.10" departSpeed="0.00" departDelay="0.00" arrival="51.00" arrivalLane="NE_1" arrivalPos="89.60" arrivalSpeed="11.79" duration="36.00" routeLength="194.90" waitingTime="11.00" waitingCount="1" stopTime="0.00" timeLoss="20.17" rerouteNo="0" devices="tripinfo_flow_we.5 routing_flow_we.5" vType="car" speedFactor="0.89" vaporized=""/>
    <tripinfo id="flow_we.6" depart="18.00" departLane="WN_0" departPos="5.10" departSpeed="0.00" departDelay="0.00" arrival="53.00" arrivalLane="NE_0" arrivalPos="89.60" arrivalSpeed="11.82" duration="35.00" routeLength="194.90" waitingTime="10.00" waitingCount="1" stopTime="0.00" timeLoss="19.60" rerouteNo="0" devices="tripinfo_flow_we.6 routing_flow_we.6" vType="car" speedFactor="0.94" vaporized=""/>
    <tripinfo id="flow_we.7" depart="21.00" departLane="WN_0" departPos="5.10" departSpeed="0.00" departDelay="0.00" arrival="53.00" arrivalLane="NE_1" arrivalPos="89.60" arrivalSpeed="14.27" duration="32.00" routeLength="194.90" waitingTime="5.00" waitingCount="1" stopTime="0.00" timeLoss="18.75" rerouteNo="0" devices="tripinfo_flow_we.7 routing_flow_we.7" vType="car" speedFactor="1.09" vaporized=""/>
    <tripinfo id="flow_we.8" depart="24.00" departLane="WN_0" departPos="5.10" departSpeed="0.00" departDelay="0.00" arrival="55.00" arrivalLane="NE_0" arrivalPos="89.60" arrivalSpeed="13.80" duration="31.00" routeLength="194.90" waitingTime="4.00" waitingCount="1" stopTime="0.00" timeLoss="16.57" rerouteNo="0" devices="tripinfo_flow_we.8 routing_flow_we.8" vType="car" speedFactor="1.03" vaporized=""/>
    <tripinfo id="ev_44" depart="34.00" departLane="NN_out_0" departPos="6.60" departSpeed="0.00" departDelay="0.00" arrival="55.00" arrivalLane="NE_1" arrivalPos="89.60" arrivalSpeed="17.90" duration="21.00" routeLength="286.22" waitingTime="0.00" waitingCount="0" stopTime="0.00" timeLoss="-5.43" rerouteNo="1" devices="tripinfo_ev_44 routing_ev_44" vType="emergency_vehicle" speedFactor="1.00" vaporized=""/>
    <tripinfo id="flow_we.10" depart="30.00" departLane="WN_0" departPos="5.10" departSpeed="0.00" departDelay="0.00" arrival="56.00" arrivalLane="NE_0" arrivalPos="89.60" arrivalSpeed="13.50" duration="26.00" routeLength="194.90" waitingTime="1.00" waitingCount="1" stopTime="0.00" timeLoss="11.80" rerouteNo="0" devices="tripinfo_flow_we.10 routing_flow_we.10" vType="car" speedFactor="0.99" vaporized=""/>
    <tripinfo id="flow_we.9" depart="27.00" departLane="WN_0" departPos="5.10" departSpeed="0.00" departDelay="0.00" arrival="57.00" arrivalLane="NE_1" arrivalPos="89.60" arrivalSpeed="13.51" duration="30.00" routeLength="194.90" waitingTime="3.00" waitingCount="1" stopTime="0.00" timeLoss="16.59" rerouteNo="0" devices="tripinfo_flow_we.9 routing_flow_we.9" vType="car" speedFactor="1.05" vaporized=""/>
    <tripinfo id="flow_we.12" depart="36.00" departLane="WN_0" departPos="5.10" departSpeed="0.00" departDelay="0.00" arrival="59.00" arrivalLane="NE_0" arrivalPos="89.60" arrivalSpeed="11.59" duration="23.00" routeLength="194.90" waitingTime="0.00" waitingCount="0" stopTime="0.00" timeLoss="6.75" rerouteNo="0" devices="tripinfo_flow_we.12 routing_flow_we.12" vType="car" speedFactor="0.88" vaporized=""/>
    <tripinfo id="flow_we.11" depart="33.00" departLane="WN_0" departPos="5.10" departSpeed="0.00" departDelay="0.00" arrival="60.00" arrivalLane="NE_1" arrivalPos="89.60" arrivalSpeed="12.49" duration="27.00" routeLength="194.90" waitingTime="0.00" waitingCount="0" stopTime="0.00" timeLoss="11.34" rerouteNo="0" devices="tripinfo_flow_we.11 routing_flow_we.11" vType="car" speedFactor="0.93" vaporized=""/>
    <tripinfo id="flow_we.14" depart="42.00" departLane="WN_0" departPos="5.10" departSpeed="0.00" departDelay="0.00" arrival="61.00" arrivalLane="NE_0" arrivalPos="89.60" arrivalSpeed="15.40" duration="19.00" routeLength="194.90" waitingTime="0.00" waitingCount="0" stopTime="0.00" timeLoss="6.14" rerouteNo="0" devices="tripinfo_flow_we.14 routing_flow_we.14" vType="car" speedFactor="1.16" vaporized=""/>
    <tripinfo id="flow_we.13" depart="39.00" departLane="WN_0" departPos="5.10" departSpeed="0.00" departDelay="0.00" arrival="62.00" arrivalLane="NE_1" arrivalPos="89.60" arrivalSpeed="12.49" duration="23.00" routeLength="194.90" waitingTime="0.00" waitingCount="0" stopTime="0.00" timeLoss="7.33" rerouteNo="0" devices="tripinfo_flow_we.13 routing_flow_we.13" vType="car" speedFactor="0.94" vaporized=""/>
    <tripinfo id="flow_we.15" depart="45.00" departLane="WN_0" departPos="5.10" departSpeed="0.00" departDelay="0.00" arrival="63.00" arrivalLane="NE_0" arrivalPos="89.60" arrivalSpeed="13.85" duration="18.00" routeLength="194.90" waitingTime="0.00" waitingCount="0" stopTime="0.00" timeLoss="3.78" rerouteNo="0" devices="tripinfo_flow_we.15 routing_flow_we.15" vType="car" speedFactor="1.02" vaporized=""/>
    <tripinfo id="flow_we.16" depart="48.00" departLane="WN_0" departPos="5.10" departSpeed="0.00" departDelay="0.00" arrival="66.00" arrivalLane="NE_0" arrivalPos="89.60" arrivalSpeed="13.48" duration="18.00" routeLength="194.90" waitingTime="0.00" waitingCount="0" stopTime="0.00" timeLoss="3.28" rerouteNo="0" devices="tripinfo_flow_we.16 routing_flow_we.16" vType="car" speedFactor="0.97" vaporized=""/>
    <tripinfo id="flow_we.17" depart="51.00" departLane="WN_0" departPos="5.10" departSpeed="0.00" departDelay="0.00" arrival="70.00" arrivalLane="NE_0" arrivalPos="89.60" arrivalSpeed="12.20" duration="19.00" routeLength="194.90" waitingTime="0.00" waitingCount="0" stopTime="0.00" timeLoss="3.00" rerouteNo="0" devices="tripinfo_flow_we.17 routing_flow_we.17" vType="car" speedFactor="0.89" vaporized=""/>
    <tripinfo id="flow_we.18" depart="54.00" departLane="WN_0" departPos="5.10" departSpeed="0.00" departDelay="0.00" arrival="75.00" arrivalLane="NE_0" arrivalPos="89.60" arrivalSpeed="10.24" duration="21.00" routeLength="194.90" waitingTime="0.00" waitingCount="0" stopTime="0.00" timeLoss="3.46" rerouteNo="0" devices="tripinfo_flow_we.18 routing_flow_we.18" vType="car" speedFactor="0.83" vaporized=""/>
    <tripinfo id="flow_we.19" depart="57.00" departLane="WN_0" departPos="5.10" departSpeed="0.00" departDelay="0.00" arrival="77.00" arrivalLane="NE_0" arrivalPos="89.60" arrivalSpeed="11.82" duration="20.00" routeLength="194.90" waitingTime="0.00" waitingCount="0" stopTime="0.00" timeLoss="4.00" rerouteNo="0" devices="tripinfo_flow_we.19 routing_flow_we.19" vType="car" speedFactor="0.92" vaporized=""/>
    <tripinfo id="flow_we.20" depart="60.00" departLane="WN_0" departPos="5.10" departSpeed="0.00" departDelay="0.00" arrival="79.00" arrivalLane="NE_0" arrivalPos="89.60" arrivalSpeed="12.78" duration="19.00" routeLength="194.90" waitingTime="0.00" waitingCount="0" stopTime="0.00" timeLoss="3.60" rerouteNo="0" devices="tripinfo_flow_we.20 routing_flow_we.20" vType="car" speedFactor="0.95" vaporized=""/>
    <tripinfo id="flow_we.21" depart="63.00" departLane="WN_0" departPos="5.10" departSpeed="0.00" departDelay="0.00" arrival="81.00" arrivalLane="NE_0" arrivalPos="89.60" arrivalSpeed="14.74" duration="18.00" routeLength="194.90" waitingTime="0.00" waitingCount="0" stopTime="0.00" timeLoss="4.71" rerouteNo="0" devices="tripinfo_flow_we.21 routing_flow_we.21" vType="car" speedFactor="1.13" vaporized=""/>
    <tripinfo id="flow_we.22" depart="66.00" departLane="WN_0" departPos="5.10" departSpeed="0.00" departDelay="0.00" arrival="82.00" arrivalLane="NE_0" arrivalPos="89.60" arrivalSpeed="15.71" duration="16.00" routeLength="194.90" waitingTime="0.00" waitingCount="0" stopTime="0.00" timeLoss="4.05" rerouteNo="0" devices="tripinfo_flow_we.22 routing_flow_we.22" vType="car" speedFactor="1.18" vaporized=""/>
    <tripinfo id="flow_we.23" depart="69.00" departLane="WN_0" departPos="5.10" departSpeed="0.00" departDelay="0.00" arrival="85.00" arrivalLane="NE_0" arrivalPos="89.60" arrivalSpeed="15.25" duration="16.00" routeLength="194.90" waitingTime="0.00" waitingCount="0" stopTime="0.00" timeLoss="3.74" rerouteNo="0" devices="tripinfo_flow_we.23 routing_flow_we.23" vType="car" speedFactor="1.15" vaporized=""/>
    <tripinfo id="flow_ns.3" depart="27.00" departLane="NN_0" departPos="5.10" departSpeed="0.00" departDelay="0.00" arrival="91.00" arrivalLane="NS_0" arrivalPos="89.60" arrivalSpeed="15.32" duration="64.00" routeLength="194.90" waitingTime="39.00" waitingCount="1" stopTime="0.00" timeLoss="51.23" rerouteNo="0" devices="tripinfo_flow_ns.3 routing_flow_ns.3" vType="car" speedFactor="1.12" vaporized=""/>
    <tripinfo id="flow_ns.4" depart="36.00" departLane="NN_0" departPos="5.10" departSpeed="0.00" departDelay="0.00" arrival="92.00" arrivalLane="NS_0" arrivalPos="89.60" arrivalSpeed="12.09" duration="56.00" routeLength="194.90" waitingTime="31.00" waitingCount="1" stopTime="0.00" timeLoss="41.07" rerouteNo="0" devices="tripinfo_flow_ns.4 routing_flow_ns.4" vType="car" speedFactor="0.94" vaporized=""/>
    <tripinfo id="flow_we.25" depart="75.00" departLane="WN_0" departPos="5.10" departSpeed="0.00" departDelay="0.00" arrival="94.00" arrivalLane="NE_1" arrivalPos="89.60" arrivalSpeed="12.61" duration="19.00" routeLength="194.90" waitingTime="0.00" waitingCount="0" stopTime="0.00" timeLoss="4.59" rerouteNo="0" devices="tripinfo_flow_we.25 routing_flow_we.25" vType="car" speedFactor="0.99" vaporized=""/>
    <tripinfo id="flow_we.24" depart="72.00" departLane="WN_0" departPos="5.10" departSpeed="0.00" departDelay="0.00" arrival="96.00" arrivalLane="NE_0" arrivalPos="89.60" arrivalSpeed="12.77" duration="24.00" routeLength="194.90" waitingTime="1.00" waitingCount="1" stopTime="0.00" timeLoss="9.91" rerouteNo="0" devices="tripinfo_flow_we.24 routing_flow_we.24" vType="car" speedFactor="1.01" vaporized=""/>
    <tripinfo id="ev_45" depart="53.00" departLane="NN_1" departPos="6.60" departSpeed="0.00" departDelay="0.00" arrival="99.00" arrivalLane="SN_1" arrivalPos="89.60" arrivalSpeed="33.49" duration="46.00" routeLength="287.67" waitingTime="19.00" waitingCount="1" stopTime="0.00" timeLoss="24.83" rerouteNo="1" devices="tripinfo_ev_45 routing_ev_45" vType="emergency_vehicle" speedFactor="1.00" vaporized=""/>
    <tripinfo id="flow_we.27" depart="81.00" departLane="WN_0" departPos="5.10" departSpeed="0.00" departDelay="0.00" arrival="100.00" arrivalLane="NE_0" arrivalPos="89.60" arrivalSpeed="13.00" duration="19.00" routeLength="194.90" waitingTime="0.00" waitingCount="0" stopTime="0.00" timeLoss="4.37" rerouteNo="0" devices="tripinfo_flow_we.27 routing_flow_we.27" vType="car" speedFactor="0.97" vaporized=""/>
    <tripinfo id="flow_we.26" depart="78.00" departLane="WN_0" departPos="5.10" departSpeed="0.00" departDelay="0.00" arrival="102.00" arrivalLane="NE_1" arrivalPos="89.60" arrivalSpeed="13.50" duration="24.00" routeLength="194.90" waitingTime="0.00" waitingCount="0" stopTime="0.00" timeLoss="9.82" rerouteNo="0" devices="tripinfo_flow_we.26 routing_flow_we.26" vType="car" speedFactor="1.02" vaporized=""/>
    <tripinfo id="flow_we.28" depart="84.00" departLane="WN_0" departPos="5.10" departSpeed="0.00" departDelay="0.00" arrival="102.00" arrivalLane="NE_0" arrivalPos="89.60" arrivalSpeed="14.21" duration="18.00" routeLength="194.90" waitingTime="0.00" waitingCount="0" stopTime="0.00" timeLoss="4.79" rerouteNo="0" devices="tripinfo_flow_we.28 routing_flow_we.28" vType="car" speedFactor="1.10" vaporized=""/>
    <tripinfo id="flow_we.29" depart="87.00" departLane="WN_0" departPos="5.10" departSpeed="0.00" departDelay="0.00" arrival="106.00" arrivalLane="NE_0" arrivalPos="89.60" arrivalSpeed="11.50" duration="19.00" routeLength="194.90" waitingTime="0.00" waitingCount="0" stopTime="0.00" timeLoss="2.86" rerouteNo="0" devices="tripinfo_flow_we.29 routing_flow_we.29" vType="car" speedFactor="0.90" vaporized=""/>
    <tripinfo id="flow_we.30" depart="90.00" departLane="WN_0" departPos="5.10" departSpeed="0.00" departDelay="0.00" arrival="108.00" arrivalLane="NE_0" arrivalPos="89.60" arrivalSpeed="13.34" duration="18.00" routeLength="194.90" waitingTime="0.00" waitingCount="0" stopTime="0.00" timeLoss="3.86" rerouteNo="0" devices="tripinfo_flow_we.30 routing_flow_we.30" vType="car" speedFactor="1.03" vaporized=""/>
    <tripinfo id="flow_we.31" depart="93.00" departLane="WN_0" departPos="5.10" departSpeed="0.00" departDelay="0.00" arrival="110.00" arrivalLane="NE_0" arrivalPos="89.60" arrivalSpeed="14.38" duration="17.00" routeLength="194.90" waitingTime="0.00" waitingCount="0" stopTime="0.00" timeLoss="4.11" rerouteNo="0" devices="tripinfo_flow_we.31 routing_flow_we.31" vType="car" speedFactor="1.09" vaporized=""/>
    <tripinfo id="flow_we.32" depart="96.00" departLane="WN_0" departPos="5.10" departSpeed="0.00" departDelay="0.00" arrival="114.00" arrivalLane="NE_0" arrivalPos="89.60" arrivalSpeed="14.33" duration="18.00" routeLength="194.90" waitingTime="0.00" waitingCount="0" stopTime="0.00" timeLoss="4.08" rerouteNo="0" devices="tripinfo_flow_we.32 routing_flow_we.32" vType="car" speedFactor="1.04" vaporized=""/>
    <tripinfo id="flow_we.33" depart="99.00" departLane="WN_0" departPos="5.10" departSpeed="0.00" departDelay="0.00" arrival="117.00" arrivalLane="NE_0" arrivalPos="89.60" arrivalSpeed="13.60" duration="18.00" routeLength="194.90" waitingTime="0.00" waitingCount="0" stopTime="0.00" timeLoss="4.22" rerouteNo="0" devices="tripinfo_flow_we.33 routing_flow_we.33" vType="car" speedFactor="1.04" vaporized=""/>
    <tripinfo id="flow_we.34" depart="102.00" departLane="WN_0" departPos="5.10" departSpeed="0.00" departDelay="0.00" arrival="120.00" arrivalLane="NE_0" arrivalPos="89.60" arrivalSpeed="13.63" duration="18.00" routeLength="194.90" waitingTime="0.00" waitingCount="0" stopTime="0.00" timeLoss="3.64" rerouteNo="0" devices="tripinfo_flow_we.34 routing_flow_we.34" vType="car" speedFactor="1.00" vaporized=""/>
    <tripinfo id="flow_we.35" depart="105.00" departLane="WN_0" departPos="5.10" departSpeed="0.00" departDelay="0.00" arrival="125.00" arrivalLane="NE_0" arrivalPos="89.60" arrivalSpeed="11.88" duration="20.00" routeLength="194.90" waitingTime="0.00" waitingCount="0" stopTime="0.00" timeLoss="3.83" rerouteNo="0" devices="tripinfo_flow_we.35 routing_flow_we.35" vType="car" speedFactor="0.90" vaporized=""/>
    <tripinfo id="flow_we.36" depart="108.00" departLane="WN_0" departPos="5.10" departSpeed="0.00" departDelay="0.00" arrival="128.00" arrivalLane="NE_0" arrivalPos="89.60" arrivalSpeed="11.19" duration="20.00" routeLength="194.90" waitingTime="0.00" waitingCount="0" stopTime="0.00" timeLoss="3.44" rerouteNo="0" devices="tripinfo_flow_we.36 routing_flow_we.36" vType="car" speedFactor="0.88" vaporized=""/>
    <tripinfo id="flow_we.37" depart="111.00" departLane="WN_0" departPos="5.10" departSpeed="0.00" departDelay="0.00" arrival="131.00" arrivalLane="NE_0" arrivalPos="89.60" arrivalSpeed="10.68" duration="20.00" routeLength="194.90" waitingTime="0.00" waitingCount="0" stopTime="0.00" timeLoss="3.18" rerouteNo="0" devices="tripinfo_flow_we.37 routing_flow_we.37" vType="car" speedFactor="0.85" vaporized=""/>
    <tripinfo id="flow_we.38" depart="114.00" departLane="WN_0" departPos="5.10" departSpeed="0.00" departDelay="0.00" arrival="133.00" arrivalLane="NE_0" arrivalPos="89.60" arrivalSpeed="14.54" duration="19.00" routeLength="194.90" waitingTime="0.00" waitingCount="0" stopTime="0.00" timeLoss="6.26" rerouteNo="0" devices="tripinfo_flow_we.38 routing_flow_we.38" vType="car" speedFactor="1.17" vaporized=""/>
    <tripinfo id="flow_we.39" depart="117.00" departLane="WN_0" departPos="5.10" departSpeed="0.00" departDelay="0.00" arrival="134.00" arrivalLane="NE_0" arrivalPos="89.60" arrivalSpeed="13.51" duration="17.00" routeLength="194.90" waitingTime="0.00" waitingCount="0" stopTime="0.00" timeLoss="3.16" rerouteNo="0" devices="tripinfo_flow_we.39 routing_flow_we.39" vType="car" speedFactor="1.02" vaporized=""/>
    <tripinfo id="flow_we.40" depart="120.00" departLane="WN_0" departPos="5.10" departSpeed="0.00" departDelay="0.00" arrival="138.00" arrivalLane="NE_0" arrivalPos="89.60" arrivalSpeed="13.88" duration="18.00" routeLength="194.90" waitingTime="0.00" waitingCount="0" stopTime="0.00" timeLoss="3.51" rerouteNo="0" devices="tripinfo_flow_we.40 routing_flow_we.40" vType="car" speedFactor="1.00" vaporized=""/>
    <tripinfo id="flow_we.41" depart="123.00" departLane="WN_0" departPos="5.10" departSpeed="0.00" departDelay="0.00" arrival="142.00" arrivalLane="NE_0" arrivalPos="89.60" arrivalSpeed="13.35" duration="19.00" routeLength="194.90" waitingTime="0.00" waitingCount="0" stopTime="0.00" timeLoss="4.07" rerouteNo="0" devices="tripinfo_flow_we.41 routing_flow_we.41" vType="car" speedFactor="1.00" vaporized=""/>
    <tripinfo id="flow_ns.5" depart="45.00" departLane="NN_0" departPos="5.10" departSpeed="0.00" departDelay="0.00" arrival="147.00" arrivalLane="NS_0" arrivalPos="89.60" arrivalSpeed="13.99" duration="102.00" routeLength="194.90" waitingTime="74.00" waitingCount="2" stopTime="0.00" timeLoss="87.28" rerouteNo="0" devices="tripinfo_flow_ns.5 routing_flow_ns.5" vType="car" speedFactor="1.01" vaporized=""/>
    <tripinfo id="flow_ns.7" depart="63.00" departLane="NN_0" departPos="5.10" departSpeed="0.00" departDelay="0.00" arrival="147.00" arrivalLane="NS_1" arrivalPos="89.60" arrivalSpeed="12.23" duration="84.00" routeLength="194.90" waitingTime="51.00" waitingCount="2" stopTime="0.00" timeLoss="68.73" rerouteNo="0" devices="tripinfo_flow_ns.7 routing_flow_ns.7" vType="car" speedFactor="0.93" vaporized=""/>
    <tripinfo id="flow_ns.8" depart="72.00" departLane="NN_0" departPos="5.10" departSpeed="0.00" departDelay="0.00" arrival="149.00" arrivalLane="NS_1" arrivalPos="89.60" arrivalSpeed="15.30" duration="77.00" routeLength="194.90" waitingTime="45.00" waitingCount="2" stopTime="0.00" timeLoss="64.46" rerouteNo="0" devices="tripinfo_flow_ns.8 routing_flow_ns.8" vType="car" speedFactor="1.17" vaporized=""/>
    <tripinfo id="flow_ns.6" depart="54.00" departLane="NN_0" departPos="5.10" departSpeed="0.00" departDelay="0.00" arrival="150.00" arrivalLane="NS_0" arrivalPos="89.60" arrivalSpeed="11.82" duration="96.00" routeLength="194.90" waitingTime="65.00" waitingCount="2" stopTime="0.00" timeLoss="79.26" rerouteNo="0" devices="tripinfo_flow_ns.6 routing_flow_ns.6" vType="car" speedFactor="0.87" vaporized=""/>
    <tripinfo id="flow_ns.10" depart="90.00" departLane="NN_0" departPos="5.10" departSpeed="0.00" departDelay="0.00" arrival="151.00" arrivalLane="NS_1" arrivalPos="89.60" arrivalSpeed="12.03" duration="61.00" routeLength="194.90" waitingTime="37.00" waitingCount="1" stopTime="0.00" timeLoss="46.14" rerouteNo="0" devices="tripinfo_flow_ns.10 routing_flow_ns.10" vType="car" speedFactor="0.96" vaporized=""/>
    <tripinfo id="flow_ns.9" depart="81.00" departLane="NN_0" departPos="5.10" departSpeed="0.00" departDelay="0.00" arrival="152.00" arrivalLane="NS_0" arrivalPos="89.60" arrivalSpeed="15.52" duration="71.00" routeLength="194.90" waitingTime="45.00" waitingCount="1" stopTime="0.00" timeLoss="58.17" rerouteNo="0" devices="tripinfo_flow_ns.9 routing_flow_ns.9" vType="car" speedFactor="1.18" vaporized=""/>
    <tripinfo id="flow_ns.11" depart="99.00" departLane="NN_0" departPos="5.10" departSpeed="0.00" departDelay="0.00" arrival="153.00" arrivalLane="NS_0" arrivalPos="89.60" arrivalSpeed="14.16" duration="54.00" routeLength="194.90" waitingTime="28.00" waitingCount="1" stopTime="0.00" timeLoss="40.85" rerouteNo="0" devices="tripinfo_flow_ns.11 routing_flow_ns.11" vType="car" speedFactor="1.09" vaporized=""/>
    <tripinfo id="flow_ns.12" depart="108.00" departLane="NN_0" departPos="5.10" departSpeed="0.00" departDelay="0.00" arrival="154.00" arrivalLane="NS_1" arrivalPos="89.60" arrivalSpeed="11.16" duration="46.00" routeLength="194.90" waitingTime="19.00" waitingCount="1" stopTime="0.00" timeLoss="29.12" rerouteNo="0" devices="tripinfo_flow_ns.12 routing_flow_ns.12" vType="car" speedFactor="0.85" vaporized=""/>
    <tripinfo id="flow_ns.13" depart="117.00" departLane="NN_0" departPos="5.10" departSpeed="0.00" departDelay="0.00" arrival="155.00" arrivalLane="NS_0" arrivalPos="89.60" arrivalSpeed="14.72" duration="38.00" routeLength="194.90" waitingTime="12.00" waitingCount="1" stopTime="0.00" timeLoss="24.67" rerouteNo="0" devices="tripinfo_flow_ns.13 routing_flow_ns.13" vType="car" speedFactor="1.10" vaporized=""/>
    <tripinfo id="flow_ns.14" depart="126.00" departLane="NN_0" departPos="5.10" departSpeed="0.00" departDelay="0.00" arrival="156.00" arrivalLane="NS_1" arrivalPos="89.60" arrivalSpeed="15.64" duration="30.00" routeLength="194.90" waitingTime="3.00" waitingCount="1" stopTime="0.00" timeLoss="16.94" rerouteNo="0" devices="tripinfo_flow_ns.14 routing_flow_ns.14" vType="car" speedFactor="1.14" vaporized=""/>
    <tripinfo id="flow_ns.15" depart="135.00" departLane="NN_0" departPos="5.10" departSpeed="0.00" departDelay="0.00" arrival="157.00" arrivalLane="NS_0" arrivalPos="89.60" arrivalSpeed="14.83" duration="22.00" routeLength="194.90" waitingTime="0.00" waitingCount="0" stopTime="0.00" timeLoss="8.54" rerouteNo="0" devices="tripinfo_flow_ns.15 routing_flow_ns.15" vType="car" speedFactor="1.12" vaporized=""/>
    <tripinfo id="flow_ns.16" depart="144.00" departLane="NN_0" departPos="5.10" departSpeed="0.00" departDelay="0.00" arrival="165.00" arrivalLane="NS_0" arrivalPos="89.60" arrivalSpeed="12.00" duration="21.00" routeLength="194.90" waitingTime="0.00" waitingCount="0" stopTime="0.00" timeLoss="4.41" rerouteNo="0" devices="tripinfo_flow_ns.16 routing_flow_ns.16" vType="car" speedFactor="0.88" vaporized=""/>
    <tripinfo id="flow_ns.17" depart="153.00" departLane="NN_0" departPos="5.10" departSpeed="0.00" departDelay="0.00" arrival="171.00" arrivalLane="NS_0" arrivalPos="89.60" arrivalSpeed="13.56" duration="18.00" routeLength="194.90" waitingTime="0.00" waitingCount="0" stopTime="0.00" timeLoss="3.71" rerouteNo="0" devices="tripinfo_flow_ns.17 routing_flow_ns.17" vType="car" speedFactor="1.02" vaporized=""/>
    <tripinfo id="flow_ns.18" depart="162.00" departLane="NN_0" departPos="5.10" departSpeed="0.00" departDelay="0.00" arrival="179.00" arrivalLane="NS_0" arrivalPos="89.60" arrivalSpeed="13.40" duration="17.00" routeLength="194.90" waitingTime="0.00" waitingCount="0" stopTime="0.00" timeLoss="3.66" rerouteNo="0" devices="tripinfo_flow_ns.18 routing_flow_ns.18" vType="car" speedFactor="1.06" vaporized=""/>
    <tripinfo id="flow_ns.19" depart="171.00" departLane="NN_0" departPos="5.10" departSpeed="0.00" departDelay="0.00" arrival="189.00" arrivalLane="NS_0" arrivalPos="89.60" arrivalSpeed="12.88" duration="18.00" routeLength="194.90" waitingTime="0.00" waitingCount="0" stopTime="0.00" timeLoss="3.65" rerouteNo="0" devices="tripinfo_flow_ns.19 routing_flow_ns.19" vType="car" speedFactor="0.98" vaporized=""/>
    <tripinfo id="flow_ns.20" depart="180.00" departLane="NN_0" departPos="5.10" departSpeed="0.00" departDelay="0.00" arrival="198.00" arrivalLane="NS_0" arrivalPos="89.60" arrivalSpeed="12.79" duration="18.00" routeLength="194.90" waitingTime="0.00" waitingCount="0" stopTime="0.00" timeLoss="3.72" rerouteNo="0" devices="tripinfo_flow_ns.20 routing_flow_ns.20" vType="car" speedFactor="1.00" vaporized=""/>
    <tripinfo id="flow_we.42" depart="126.00" departLane="WN_0" departPos="5.10" departSpeed="0.00" departDelay="0.00" arrival="203.00" arrivalLane="NE_0" arrivalPos="89.60" arrivalSpeed="11.38" duration="77.00" routeLength="194.90" waitingTime="53.00" waitingCount="1" stopTime="0.00" timeLoss="61.12" rerouteNo="0" devices="tripinfo_flow_we.42 routing_flow_we.42" vType="car" speedFactor="0.90" vaporized=""/>
    <tripinfo id="flow_we.43" depart="129.00" departLane="WN_0" departPos="5.10" departSpeed="0.00" departDelay="0.00" arrival="203.00" arrivalLane="NE_1" arrivalPos="89.60" arrivalSpeed="13.32" duration="74.00" routeLength="194.90" waitingTime="51.00" waitingCount="1" stopTime="0.00" timeLoss="59.52" rerouteNo="0" devices="tripinfo_flow_we.43 routing_flow_we.43" vType="car" speedFactor="1.02" vaporized=""/>
    <tripinfo id="flow_we.44" depart="132.00" departLane="WN_0" departPos="5.10" departSpeed="0.00" departDelay="0.00" arrival="205.00" arrivalLane="NE_0" arrivalPos="89.60" arrivalSpeed="13.41" duration="73.00" routeLength="194.90" waitingTime="48.00" waitingCount="1" stopTime="0.00" timeLoss="57.92" rerouteNo="0" devices="tripinfo_flow_we.44 routing_flow_we.44" vType="car" speedFactor="0.97" vaporized=""/>
    <tripinfo id="flow_we.45" depart="135.00" departLane="WN_0" departPos="5.10" departSpeed="0.00" departDelay="0.00" arrival="205.00" arrivalLane="NE_1" arrivalPos="89.60" arrivalSpeed="13.90" duration="70.00" routeLength="194.90" waitingTime="46.00" waitingCount="1" stopTime="0.00" timeLoss="56.18" rerouteNo="0" devices="tripinfo_flow_we.45 routing_flow_we.45" vType="car" speedFactor="1.08" vaporized=""/>
    <tripinfo id="flow_we.46" depart="138.00" departLane="WN_0" departPos="5.10" departSpeed="0.00" departDelay="0.00" arrival="207.00" arrivalLane="NE_0" arrivalPos="89.60" arrivalSpeed="13.35" duration="69.00" routeLength="194.90" waitingTime="44.00" waitingCount="1" stopTime="0.00" timeLoss="54.44" rerouteNo="0" devices="tripinfo_flow_we.46 routing_flow_we.46" vType="car" speedFactor="1.02" vaporized=""/>
    <tripinfo id="flow_we.47" depart="141.00" departLane="WN_0" departPos="5.10" departSpeed="0.00" departDelay="0.00" arrival="207.00" arrivalLane="NE_1" arrivalPos="89.60" arrivalSpeed="12.76" duration="66.00" routeLength="194.90" waitingTime="40.00" waitingCount="1" stopTime="0.00" timeLoss="51.15" rerouteNo="0" devices="tripinfo_flow_we.47 routing_flow_we.47" vType="car" speedFactor="0.99" vaporized=""/>