<?xml version="1.0" encoding="UTF-8"?>

<!-- generated on 2025-09-20 13:39:47 by Eclipse SUMO GUI Version 1.24.0
<sumoConfiguration xmlns:xsi="http://www.w3.org/2001/XMLSchema-instance" xsi:noNamespaceSchemaLocation="http://sumo.dlr.de/xsd/sumoConfiguration.xsd">

    <input>
        <net-file value="simulation/intersection.net.xml"/>
        <route-files value="simulation/intersection.rou.xml"/>
    </input>

    <output>
        <summary-output value="outputs/intersection_after_ai_summary.xml"/>
        <tripinfo-output value="outputs/intersection_after_ai_tripinfo.xml"/>
    </output>

    <time>
        <begin value="0"/>
    </time>

    <traci_server>
        <remote-port value="8813"/>
    </traci_server>

    <gui_only>
        <start value="true"/>
    </gui_only>

</sumoConfiguration>
-->

<tripinfos xmlns:xsi="http://www.w3.org/2001/XMLSchema-instance" xsi:noNamespaceSchemaLocation="http://sumo.dlr.de/xsd/tripinfo_file.xsd">
    <tripinfo id="flow_ns.0" depart="0.00" departLane="NN_0" departPos="5.10" departSpeed="0.00" departDelay="0.00" arrival="18.00" arrivalLane="NS_0" arrivalPos="89.60" arrivalSpeed="13.70" duration="18.00" routeLength="194.90" waitingTime="0.00" waitingCount="0" stopTime="0.00" timeLoss="3.65" rerouteNo="0" devices="tripinfo_flow_ns.0 routing_flow_ns.0" vType="car" speedFactor="1.01" vaporized=""/>
    <tripinfo id="flow_sn.0" depart="0.00" departLane="SN_0" departPos="5.10" departSpeed="0.00" departDelay="0.00" arrival="29.00" arrivalLane="NN_1" arrivalPos="89.60" arrivalSpeed="14.47" duration="29.00" routeLength="289.17" waitingTime="0.00" waitingCount="0" stopTime="0.00" timeLoss="8.47" rerouteNo="1" devices="tripinfo_flow_sn.0 routing_flow_sn.0" vType="car" speedFactor="1.08" vaporized=""/>
    <tripinfo id="flow_ns.1" depart="9.00" departLane="NN_0" departPos="5.10" departSpeed="0.00" departDelay="0.00" arrival="29.00" arrivalLane="NS_0" arrivalPos="89.60" arrivalSpeed="11.44" duration="20.00" routeLength="194.90" waitingTime="0.00" waitingCount="0" stopTime="0.00" timeLoss="3.58" rerouteNo="0" devices="tripinfo_flow_ns.1 routing_flow_ns.1" vType="car" speedFactor="0.86" vaporized=""/>
    <tripinfo id="flow_ns.2" depart="18.00" departLane="NN_0" departPos="5.10" departSpeed="0.00" departDelay="0.00" arrival="37.00" arrivalLane="NS_0" arrivalPos="89.60" arrivalSpeed="12.83" duration="19.00" routeLength="194.90" waitingTime="0.00" waitingCount="0" stopTime="0.00" timeLoss="3.78" rerouteNo="0" devices="tripinfo_flow_ns.2 routing_flow_ns.2" vType="car" speedFactor="0.94" vaporized=""/>
    <tripinfo id="flow_sn.1" depart="12.00" departLane="SN_0" departPos="5.10" departSpeed="0.00" departDelay="0.00" arrival="41.00" arrivalLane="NN_1" arrivalPos="89.60" arrivalSpeed="14.32" duration="29.00" routeLength="289.17" waitingTime="0.00" waitingCount="0" stopTime="0.00" timeLoss="7.71" rerouteNo="1" devices="tripinfo_flow_sn.1 routing_flow_sn.1" vType="car" speedFactor="1.05" vaporized=""/>
    <tripinfo id="flow_ns.3" depart="27.00" departLane="NN_0" departPos="5.10" departSpeed="0.00" departDelay="0.00" arrival="48.00" arrivalLane="NS_0" arrivalPos="89.60" arrivalSpeed="11.19" duration="21.00" routeLength="194.90" waitingTime="0.00" waitingCount="0" stopTime="0.00" timeLoss="3.34" rerouteNo="0" devices="tripinfo_flow_ns.3 routing_flow_ns.3" vType="car" speedFactor="0.83" vaporized=""/>
    <tripinfo id="flow_we.0" depart="0.00" departLane="WN_0" departPos="5.10" departSpeed="0.00" departDelay="0.00" arrival="51.00" arrivalLane="NE_0" arrivalPos="89.60" arrivalSpeed="14.43" duration="51.00" routeLength="194.90" waitingTime="27.00" waitingCount="1" stopTime="0.00" timeLoss="37.68" rerouteNo="0" devices="tripinfo_flow_we.0 routing_flow_we.0" vType="car" speedFactor="1.06" vaporized=""/>
    <tripinfo id="flow_we.1" depart="3.00" departLane="WN_0" departPos="5.10" departSpeed="0.00" departDelay="0.00" arrival="51.00" arrivalLane="NE_1" arrivalPos="89.60" arrivalSpeed="13.35" duration="48.00" routeLength="194.90" waitingTime="24.00" waitingCount="1" stopTime="0.00" timeLoss="34.37" rerouteNo="0" devices="tripinfo_flow_we.1 routing_flow_we.1" vType="car" speedFactor="1.03" vaporized=""/>
    <tripinfo id="flow_ew.0" depart="0.00" departLane="EN_0" departPos="5.10" departSpeed="0.00" departDelay="0.00" arrival="52.00" arrivalLane="NW_0" arrivalPos="89.60" arrivalSpeed="12.79" duration="52.00" routeLength="194.90" waitingTime="29.00" waitingCount="1" stopTime="0.00" timeLoss="36.58" rerouteNo="0" devices="tripinfo_flow_ew.0 routing_flow_ew.0" vType="car" speedFactor="0.94" vaporized=""/>
    <tripinfo id="flow_ew.1" depart="4.00" departLane="EN_0" departPos="5.10" departSpeed="0.00" departDelay="0.40" arrival="53.00" arrivalLane="NW_1" arrivalPos="89.60" arrivalSpeed="10.79" duration="49.00" routeLength="194.90" waitingTime="24.00" waitingCount="1" stopTime="0.00" timeLoss="31.64" rerouteNo="0" devices="tripinfo_flow_ew.1 routing_flow_ew.1" vType="car" speedFactor="0.83" vaporized=""/>
    <tripinfo id="flow_we.2" depart="6.00" departLane="WN_0" departPos="5.10" departSpeed="0.00" departDelay="0.00" arrival="53.00" arrivalLane="NE_0" arrivalPos="89.60" arrivalSpeed="13.44" duration="47.00" routeLength="194.90" waitingTime="23.00" waitingCount="1" stopTime="0.00" timeLoss="33.50" rerouteNo="0" devices="tripinfo_flow_we.2 routing_flow_we.2" vType="car" speedFactor="1.05" vaporized=""/>
    <tripinfo id="flow_sn.2" depart="24.00" departLane="SN_0" departPos="5.10" departSpeed="0.00" departDelay="0.00" arrival="53.00" arrivalLane="NN_1" arrivalPos="89.60" arrivalSpeed="12.83" duration="29.00" routeLength="289.17" waitingTime="0.00" waitingCount="0" stopTime="0.00" timeLoss="7.15" rerouteNo="1" devices="tripinfo_flow_sn.2 routing_flow_sn.2" vType="car" speedFactor="1.01" vaporized=""/>
    <tripinfo id="flow_ew.2" depart="8.00" departLane="EN_0" departPos="5.10" departSpeed="0.00" departDelay="0.80" arrival="54.00" arrivalLane="NW_0" arrivalPos="89.60" arrivalSpeed="12.26" duration="46.00" routeLength="194.90" waitingTime="21.00" waitingCount="1" stopTime="0.00" timeLoss="29.69" rerouteNo="0" devices="tripinfo_flow_ew.2 routing_flow_ew.2" vType="car" speedFactor="0.89" vaporized=""/>
    <tripinfo id="flow_we.3" depart="9.00" departLane="WN_0" departPos="5.10" departSpeed="0.00" departDelay="0.00" arrival="54.00" arrivalLane="NE_1" arrivalPos="89.60" arrivalSpeed="12.76" duration="45.00" routeLength="194.90" waitingTime="21.00" waitingCount="1" stopTime="0.00" timeLoss="29.65" rerouteNo="0" devices="tripinfo_flow_we.3 routing_flow_we.3" vType="car" speedFactor="0.94" vaporized=""/>
    <tripinfo id="flow_ew.3" depart="11.00" departLane="EN_0" departPos="5.10" departSpeed="0.00" departDelay="0.20" arrival="55.00" arrivalLane="NW_1" arrivalPos="89.60" arrivalSpeed="13.01" duration="44.00" routeLength="194.90" waitingTime="18.00" waitingCount="1" stopTime="0.00" timeLoss="30.50" rerouteNo="0" devices="tripinfo_flow_ew.3 routing_flow_ew.3" vType="car" speedFactor="1.09" vaporized=""/>
    <tripinfo id="flow_we.4" depart="12.00" departLane="WN_0" departPos="5.10" departSpeed="0.00" departDelay="0.00" arrival="55.00" arrivalLane="NE_0" arrivalPos="89.60" arrivalSpeed="14.19" duration="43.00" routeLength="194.90" waitingTime="18.00" waitingCount="1" stopTime="0.00" timeLoss="28.92" rerouteNo="0" devices="tripinfo_flow_we.4 routing_flow_we.4" vType="car" speedFactor="1.03" vaporized=""/>
    <tripinfo id="flow_we.5" depart="15.00" departLane="WN_0" departPos="5.10" departSpeed="0.00" departDelay="0.00" arrival="56.00" arrivalLane="NE_1" arrivalPos="89.60" arrivalSpeed="15.56" duration="41.00" routeLength="194.90" waitingTime="16.00" waitingCount="1" stopTime="0.00" timeLoss="27.65" rerouteNo="0" devices="tripinfo_flow_we.5 routing_flow_we.5" vType="car" speedFactor="1.12" vaporized=""/>
    <tripinfo id="flow_ew.4" depart="15.00" departLane="EN_0" departPos="5.10" departSpeed="0.00" departDelay="0.60" arrival="56.00" arrivalLane="NW_0" arrivalPos="89.60" arrivalSpeed="12.96" duration="41.00" routeLength="194.90" waitingTime="17.00" waitingCount="1" stopTime="0.00" timeLoss="26.15" rerouteNo="0" devices="tripinfo_flow_ew.4 routing_flow_ew.4" vType="car" speedFactor="0.99" vaporized=""/>
    <tripinfo id="flow_ew.5" depart="18.00" departLane="EN_0" departPos="5.10" departSpeed="0.00" departDelay="0.00" arrival="57.00" arrivalLane="NW_1" arrivalPos="89.60" arrivalSpeed="12.06" duration="39.00" routeLength="194.90" waitingTime="13.00" waitingCount="1" stopTime="0.00" timeLoss="22.13" rerouteNo="0" devices="tripinfo_flow_ew.5 routing_flow_ew.5" vType="car" speedFactor="0.88" vaporized=""/>
    <tripinfo id="flow_ew.6" depart="22.00" departLane="EN_0" departPos="5.10" departSpeed="0.00" departDelay="0.40" arrival="57.00" arrivalLane="NW_0" arrivalPos="89.60" arrivalSpeed="14.16" duration="35.00" routeLength="194.90" waitingTime="11.00" waitingCount="1" stopTime="0.00" timeLoss="22.79" rerouteNo="0" devices="tripinfo_flow_ew.6 routing_flow_ew.6" vType="car" speedFactor="1.16" vaporized=""/>
    <tripinfo id="flow_we.6" depart="18.00" departLane="WN_0" departPos="5.10" departSpeed="0.00" departDelay="0.00" arrival="58.00" arrivalLane="NE_0" arrivalPos="89.60" arrivalSpeed="11.67" duration="40.00" routeLength="194.90" waitingTime="15.00" waitingCount="1" stopTime="0.00" timeLoss="24.31" rerouteNo="0" devices="tripinfo_flow_we.6 routing_flow_we.6" vType="car" speedFactor="0.93" vaporized=""/>
    <tripinfo id="flow_we.7" depart="21.00" departLane="WN_0" departPos="5.10" departSpeed="0.00" departDelay="0.00" arrival="58.00" arrivalLane="NE_1" arrivalPos="89.60" arrivalSpeed="12.82" duration="37.00" routeLength="194.90" waitingTime="10.00" waitingCount="1" stopTime="0.00" timeLoss="21.62" rerouteNo="0" devices="tripinfo_flow_we.7 routing_flow_we.7" vType="car" speedFactor="0.94" vaporized=""/>
    <tripinfo id="flow_ew.7" depart="26.00" departLane="EN_0" departPos="5.10" departSpeed="0.00" departDelay="0.80" arrival="58.00" arrivalLane="NW_1" arrivalPos="89.60" arrivalSpeed="12.27" duration="32.00" routeLength="194.90" waitingTime="4.00" waitingCount="1" stopTime="0.00" timeLoss="17.49" rerouteNo="0" devices="tripinfo_flow_ew.7 routing_flow_ew.7" vType="car" speedFactor="0.97" vaporized=""/>
    <tripinfo id="flow_we.8" depart="24.00" departLane="WN_0" departPos="5.10" departSpeed="0.00" departDelay="0.00" arrival="60.00" arrivalLane="NE_0" arrivalPos="89.60" arrivalSpeed="13.95" duration="36.00" routeLength="194.90" waitingTime="9.00" waitingCount="1" stopTime="0.00" timeLoss="21.40" rerouteNo="0" devices="tripinfo_flow_we.8 routing_flow_we.8" vType="car" speedFactor="1.02" vaporized=""/>
    <tripinfo id="flow_ew.8" depart="29.00" departLane="EN_0" departPos="5.10" departSpeed="0.00" departDelay="0.20" arrival="60.00" arrivalLane="NW_0" arrivalPos="89.60" arrivalSpeed="11.33" duration="31.00" routeLength="194.90" waitingTime="5.00" waitingCount="1" stopTime="0.00" timeLoss="14.16" rerouteNo="0" devices="tripinfo_flow_ew.8 routing_flow_ew.8" vType="car" speedFactor="0.87" vaporized=""/>
    <tripinfo id="flow_ew.9" depart="33.00" departLane="EN_0" departPos="5.10" departSpeed="0.00" departDelay="0.60" arrival="60.00" arrivalLane="NW_1" arrivalPos="89.60" arrivalSpeed="15.64" duration="27.00" routeLength="194.90" waitingTime="1.00" waitingCount="1" stopTime="0.00" timeLoss="14.09" rerouteNo="0" devices="tripinfo_flow_ew.9 routing_flow_ew.9" vType="car" speedFactor="1.13" vaporized=""/>
    <tripinfo id="flow_we.9" depart="27.00" departLane="WN_0" departPos="5.10" departSpeed="0.00" departDelay="0.00" arrival="61.00" arrivalLane="NE_1" arrivalPos="89.60" arrivalSpeed="11.81" duration="34.00" routeLength="194.90" waitingTime="8.00" waitingCount="1" stopTime="0.00" timeLoss="17.35" rerouteNo="0" devices="tripinfo_flow_we.9 routing_flow_we.9" vType="car" speedFactor="0.89" vaporized=""/>
    <tripinfo id="flow_ew.10" depart="36.00" departLane="EN_0" departPos="5.10" departSpeed="0.00" departDelay="0.00" arrival="61.00" arrivalLane="NW_0" arrivalPos="89.60" arrivalSpeed="14.49" duration="25.00" routeLength="194.90" waitingTime="1.00" waitingCount="1" stopTime="0.00" timeLoss="12.87" rerouteNo="0" devices="tripinfo_flow_ew.10 routing_flow_ew.10" vType="car" speedFactor="1.18" vaporized=""/>
    <tripinfo id="flow_we.10" depart="30.00" departLane="WN_0" departPos="5.10" departSpeed="0.00" departDelay="0.00" arrival="62.00" arrivalLane="NE_0" arrivalPos="89.60" arrivalSpeed="12.27" duration="32.00" routeLength="194.90" waitingTime="7.00" waitingCount="1" stopTime="0.00" timeLoss="16.04" rerouteNo="0" devices="tripinfo_flow_we.10 routing_flow_we.10" vType="car" speedFactor="0.92" vaporized=""/>
    <tripinfo id="flow_we.11" depart="33.00" departLane="WN_0" departPos="5.10" departSpeed="0.00" departDelay="0.00" arrival="62.00" arrivalLane="NE_1" arrivalPos="89.60" arrivalSpeed="12.14" duration="29.00" routeLength="194.90" waitingTime="5.00" waitingCount="1" stopTime="0.00" timeLoss="14.09" rerouteNo="0" devices="tripinfo_flow_we.11 routing_flow_we.11" vType="car" speedFactor="0.95" vaporized=""/>
    <tripinfo id="flow_ew.11" depart="40.00" departLane="EN_0" departPos="5.10" departSpeed="0.00" departDelay="0.40" arrival="62.00" arrivalLane="NW_1" arrivalPos="89.60" arrivalSpeed="13.19" duration="22.00" routeLength="194.90" waitingTime="0.00" waitingCount="0" stopTime="0.00" timeLoss="7.24" rerouteNo="0" devices="tripinfo_flow_ew.11 routing_flow_ew.11" vType="car" speedFactor="0.99" vaporized=""/>
    <tripinfo id="flow_ew.12" depart="44.00" departLane="EN_0" departPos="5.10" departSpeed="0.00" departDelay="0.80" arrival="63.00" arrivalLane="NW_0" arrivalPos="89.60" arrivalSpeed="13.06" duration="19.00" routeLength="194.90" waitingTime="0.00" waitingCount="0" stopTime="0.00" timeLoss="4.17" rerouteNo="0" devices="tripinfo_flow_ew.12 routing_flow_ew.12" vType="car" speedFactor="0.97" vaporized=""/>
    <tripinfo id="flow_we.12" depart="36.00" departLane="WN_0" departPos="5.10" departSpeed="0.00" departDelay="0.00" arrival="64.00" arrivalLane="NE_0" arrivalPos="89.60" arrivalSpeed="12.85" duration="28.00" routeLength="194.90" waitingTime="2.00" waitingCount="1" stopTime="0.00" timeLoss="12.05" rerouteNo="0" devices="tripinfo_flow_we.12 routing_flow_we.12" vType="car" speedFactor="0.93" vaporized=""/>
    <tripinfo id="flow_we.13" depart="39.00" departLane="WN_0" departPos="5.10" departSpeed="0.00" departDelay="0.00" arrival="64.00" arrivalLane="NE_1" arrivalPos="89.60" arrivalSpeed="15.35" duration="25.00" routeLength="194.90" waitingTime="0.00" waitingCount="0" stopTime="0.00" timeLoss="12.37" rerouteNo="0" devices="tripinfo_flow_we.13 routing_flow_we.13" vType="car" speedFactor="1.17" vaporized=""/>
    <tripinfo id="flow_we.14" depart="42.00" departLane="WN_0" departPos="5.10" departSpeed="0.00" departDelay="0.00" arrival="65.00" arrivalLane="NE_0" arrivalPos="89.60" arrivalSpeed="13.97" duration="23.00" routeLength="194.90" waitingTime="0.00" waitingCount="0" stopTime="0.00" timeLoss="9.04" rerouteNo="0" devices="tripinfo_flow_we.14 routing_flow_we.14" vType="car" speedFactor="1.02" vaporized=""/>
    <tripinfo id="flow_we.15" depart="45.00" departLane="WN_0" departPos="5.10" departSpeed="0.00" departDelay="0.00" arrival="65.00" arrivalLane="NE_1" arrivalPos="89.60" arrivalSpeed="16.00" duration="20.00" routeLength="194.90" waitingTime="0.00" waitingCount="0" stopTime="0.00" timeLoss="8.00" rerouteNo="0" devices="tripinfo_flow_we.15 routing_flow_we.15" vType="car" speedFactor="1.18" vaporized=""/>
    <tripinfo id="flow_ew.13" depart="47.00" departLane="EN_0" departPos="5.10" departSpeed="0.00" departDelay="0.20" arrival="66.00" arrivalLane="NW_0" arrivalPos="89.60" arrivalSpeed="11.57" duration="19.00" routeLength="194.90" waitingTime="0.00" waitingCount="0" stopTime="0.00" timeLoss="3.37" rerouteNo="0" devices="tripinfo_flow_ew.13 routing_flow_ew.13" vType="car" speedFactor="0.90" vaporized=""/>
    <tripinfo id="flow_we.16" depart="48.00" departLane="WN_0" departPos="5.10" departSpeed="0.00" departDelay="0.00" arrival="67.00" arrivalLane="NE_0" arrivalPos="89.60" arrivalSpeed="13.10" duration="19.00" routeLength="194.90" waitingTime="0.00" waitingCount="0" stopTime="0.00" timeLoss="4.93" rerouteNo="0" devices="tripinfo_flow_we.16 routing_flow_we.16" vType="car" speedFactor="1.03" vaporized=""/>
    <tripinfo id="flow_ew.14" depart="51.00" departLane="EN_0" departPos="5.10" departSpeed="0.00" departDelay="0.60" arrival="68.00" arrivalLane="NW_0" arrivalPos="89.60" arrivalSpeed="14.28" duration="17.00" routeLength="194.90" waitingTime="0.00" waitingCount="0" stopTime="0.00" timeLoss="3.27" rerouteNo="0" devices="tripinfo_flow_ew.14 routing_flow_ew.14" vType="car" speedFactor="1.04" vaporized=""/>
    <tripinfo id="flow_we.17" depart="51.00" departLane="WN_0" departPos="5.10" departSpeed="0.00" departDelay="0.00" arrival="69.00" arrivalLane="NE_0" arrivalPos="89.60" arrivalSpeed="14.84" duration="18.00" routeLength="194.90" waitingTime="0.00" waitingCount="0" stopTime="0.00" timeLoss="4.28" rerouteNo="0" devices="tripinfo_flow_we.17 routing_flow_we.17" vType="car" speedFactor="1.09" vaporized=""/>
    <tripinfo id="flow_ew.15" depart="54.00" departLane="EN_0" departPos="5.10" departSpeed="0.00" departDelay="0.00" arrival="71.00" arrivalLane="NW_0" arrivalPos="89.60" arrivalSpeed="14.41" duration="17.00" routeLength="194.90" waitingTime="0.00" waitingCount="0" stopTime="0.00" timeLoss="3.86" rerouteNo="0" devices="tripinfo_flow_ew.15 routing_flow_ew.15" vType="car" speedFactor="1.09" vaporized=""/>
    <tripinfo id="flow_we.18" depart="54.00" departLane="WN_0" departPos="5.10" departSpeed="0.00" departDelay="0.00" arrival="72.00" arrivalLane="NE_0" arrivalPos="89.60" arrivalSpeed="13.35" duration="18.00" routeLength="194.90" waitingTime="0.00" waitingCount="0" stopTime="0.00" timeLoss="3.69" rerouteNo="0" devices="tripinfo_flow_we.18 routing_flow_we.18" vType="car" speedFactor="1.04" vaporized=""/>
    <tripinfo id="ev_85" depart="39.00" departLane="SN_1" departPos="6.60" departSpeed="0.00" departDelay="0.00" arrival="76.00" arrivalLane="NW_1" arrivalPos="89.60" arrivalSpeed="27.34" duration="37.00" routeLength="191.95" waitingTime="16.00" waitingCount="1" stopTime="0.00" timeLoss="21.38" rerouteNo="0" devices="tripinfo_ev_85" vType="emergency_vehicle" speedFactor="1.00" vaporized=""/>
    <tripinfo id="flow_we.19" depart="57.00" departLane="WN_0" departPos="5.10" departSpeed="0.00" departDelay="0.00" arrival="76.00" arrivalLane="NE_0" arrivalPos="89.60" arrivalSpeed="11.53" duration="19.00" routeLength="194.90" waitingTime="0.00" waitingCount="0" stopTime="0.00" timeLoss="3.35" rerouteNo="0" devices="tripinfo_flow_we.19 routing_flow_we.19" vType="car" speedFactor="0.90" vaporized=""/>
    <tripinfo id="flow_ew.16" depart="58.00" departLane="EN_0" departPos="5.10" departSpeed="0.00" departDelay="0.40" arrival="77.00" arrivalLane="NW_0" arrivalPos="89.60" arrivalSpeed="11.45" duration="19.00" routeLength="194.90" waitingTime="0.00" waitingCount="0" stopTime="0.00" timeLoss="2.91" rerouteNo="0" devices="tripinfo_flow_ew.16 routing_flow_ew.16" vType="car" speedFactor="0.88" vaporized=""/>
    <tripinfo id="flow_ew.17" depart="62.00" departLane="EN_0" departPos="5.10" departSpeed="0.00" departDelay="0.80" arrival="81.00" arrivalLane="NW_0" arrivalPos="89.60" arrivalSpeed="15.88" duration="19.00" routeLength="194.90" waitingTime="0.00" waitingCount="0" stopTime="0.00" timeLoss="6.52" rerouteNo="0" devices="tripinfo_flow_ew.17 routing_flow_ew.17" vType="car" speedFactor="1.17" vaporized=""/>
    <tripinfo id="flow_we.21" depart="63.00" departLane="WN_0" departPos="5.10" departSpeed="0.00" departDelay="0.00" arrival="82.00" arrivalLane="NE_1" arrivalPos="89.60" arrivalSpeed="13.55" duration="19.00" routeLength="194.90" waitingTime="0.00" waitingCount="0" stopTime="0.00" timeLoss="4.91" rerouteNo="0" devices="tripinfo_flow_we.21 routing_flow_we.21" vType="car" speedFactor="1.02" vaporized=""/>
    <tripinfo id="flow_ew.18" depart="65.00" departLane="EN_0" departPos="5.10" departSpeed="0.00" departDelay="0.20" arrival="84.00" arrivalLane="NW_0" arrivalPos="89.60" arrivalSpeed="12.82" duration="19.00" routeLength="194.90" waitingTime="0.00" waitingCount="0" stopTime="0.00" timeLoss="4.35" rerouteNo="0" devices="tripinfo_flow_ew.18 routing_flow_ew.18" vType="car" speedFactor="1.00" vaporized=""/>
    <tripinfo id="flow_we.20" depart="60.00" departLane="WN_0" departPos="5.10" departSpeed="0.00" departDelay="0.00" arrival="85.00" arrivalLane="NE_0" arrivalPos="89.60" arrivalSpeed="10.93" duration="25.00" routeLength="194.90" waitingTime="1.00" waitingCount="1" stopTime="0.00" timeLoss="8.01" rerouteNo="0" devices="tripinfo_flow_we.20 routing_flow_we.20" vType="car" speedFactor="0.85" vaporized=""/>
    <tripinfo id="flow_we.22" depart="66.00" departLane="WN_0" departPos="5.10" departSpeed="0.00" departDelay="0.00" arrival="85.00" arrivalLane="NE_1" arrivalPos="89.60" arrivalSpeed="13.57" duration="19.00" routeLength="194.90" waitingTime="0.00" waitingCount="0" stopTime="0.00" timeLoss="4.75" rerouteNo="0" devices="tripinfo_flow_we.22 routing_flow_we.22" vType="car" speedFactor="1.00" vaporized=""/>
    <tripinfo id="flow_ew.19" depart="69.00" departLane="EN_0" departPos="5.10" departSpeed="0.00" departDelay="0.60" arrival="86.00" arrivalLane="NW_0" arrivalPos="89.60" arrivalSpeed="15.81" duration="17.00" routeLength="194.90" waitingTime="0.00" waitingCount="0" stopTime="0.00" timeLoss="3.86" rerouteNo="0" devices="tripinfo_flow_ew.19 routing_flow_ew.19" vType="car" speedFactor="1.14" vaporized=""/>
    <tripinfo id="flow_we.23" depart="69.00" departLane="WN_0" departPos="5.10" departSpeed="0.00" departDelay="0.00" arrival="88.00" arrivalLane="NE_0" arrivalPos="89.60" arrivalSpeed="11.93" duration="19.00" routeLength="194.90" waitingTime="0.00" waitingCount="0" stopTime="0.00" timeLoss="3.13" rerouteNo="0" devices="tripinfo_flow_we.23 routing_flow_we.23" vType="car" speedFactor="0.90" vaporized=""/>
    <tripinfo id="flow_we.24" depart="72.00" departLane="WN_0" departPos="5.10" departSpeed="0.00" departDelay="0.00" arrival="90.00" arrivalLane="NE_0" arrivalPos="89.60" arrivalSpeed="14.10" duration="18.00" routeLength="194.90" waitingTime="0.00" waitingCount="0" stopTime="0.00" timeLoss="3.95" rerouteNo="0" devices="tripinfo_flow_we.24 routing_flow_we.24" vType="car" speedFactor="1.02" vaporized=""/>
    <tripinfo id="flow_ew.20" depart="72.00" departLane="EN_0" departPos="5.10" departSpeed="0.00" departDelay="0.00" arrival="91.00" arrivalLane="NW_0" arrivalPos="89.60" arrivalSpeed="12.42" duration="19.00" routeLength="194.90" waitingTime="0.00" waitingCount="0" stopTime="0.00" timeLoss="3.67" rerouteNo="0" devices="tripinfo_flow_ew.20 routing_flow_ew.20" vType="car" speedFactor="0.97" vaporized=""/>
    <tripinfo id="flow_we.25" depart="75.00" departLane="WN_0" departPos="5.10" departSpeed="0.00" departDelay="0.00" arrival="93.00" arrivalLane="NE_0" arrivalPos="89.60" arrivalSpeed="13.47" duration="18.00" routeLength="194.90" waitingTime="0.00" waitingCount="0" stopTime="0.00" timeLoss="3.86" rerouteNo="0" devices="tripinfo_flow_we.25 routing_flow_we.25" vType="car" speedFactor="1.02" vaporized=""/>
    <tripinfo id="flow_ew.21" depart="76.00" departLane="EN_0" departPos="5.10" departSpeed="0.00" departDelay="0.40" arrival="94.00" arrivalLane="NW_0" arrivalPos="89.60" arrivalSpeed="12.76" duration="18.00" routeLength="194.90" waitingTime="0.00" waitingCount="0" stopTime="0.00" timeLoss="3.76" rerouteNo="0" devices="tripinfo_flow_ew.21 routing_flow_ew.21" vType="car" speedFactor="0.99" vaporized=""/>
    <tripinfo id="flow_we.26" depart="78.00" departLane="WN_0" departPos="5.10" departSpeed="0.00" departDelay="0.00" arrival="97.00" arrivalLane="NE_0" arrivalPos="89.60" arrivalSpeed="12.74" duration="19.00" routeLength="194.90" waitingTime="0.00" waitingCount="0" stopTime="0.00" timeLoss="3.43" rerouteNo="0" devices="tripinfo_flow_we.26 routing_flow_we.26" vType="car" speedFactor="0.94" vaporized=""/>
    <tripinfo id="flow_ew.22" depart="80.00" departLane="EN_0" departPos="5.10" departSpeed="0.00" departDelay="0.80" arrival="100.00" arrivalLane="NW_0" arrivalPos="89.60" arrivalSpeed="12.12" duration="20.00" routeLength="194.90" waitingTime="0.00" waitingCount="0" stopTime="0.00" timeLoss="3.36" rerouteNo="0" devices="tripinfo_flow_ew.22 routing_flow_ew.22" vType="car" speedFactor="0.88" vaporized=""/>
    <tripinfo id="flow_we.27" depart="81.00" departLane="WN_0" departPos="5.10" departSpeed="0.00" departDelay="0.00" arrival="100.00" arrivalLane="NE_0" arrivalPos="89.60" arrivalSpeed="11.32" duration="19.00" routeLength="194.90" waitingTime="0.00" waitingCount="0" stopTime="0.00" timeLoss="3.53" rerouteNo="0" devices="tripinfo_flow_we.27 routing_flow_we.27" vType="car" speedFactor="0.91" vaporized=""/>
    <tripinfo id="flow_ew.23" depart="83.00" departLane="EN_0" departPos="5.10" departSpeed="0.00" departDelay="0.20" arrival="101.00" arrivalLane="NW_0" arrivalPos="89.60" arrivalSpeed="13.71" duration="18.00" routeLength="194.90" waitingTime="0.00" waitingCount="0" stopTime="0.00" timeLoss="4.43" rerouteNo="0" devices="tripinfo_flow_ew.23 routing_flow_ew.23" vType="car" speedFactor="1.04" vaporized=""/>
    <tripinfo id="flow_we.28" depart="84.00" departLane="WN_0" departPos="5.10" departSpeed="0.00" departDelay="0.00" arrival="102.00" arrivalLane="NE_0" arrivalPos="89.60" arrivalSpeed="13.11" duration="18.00" routeLength="194.90" waitingTime="0.00" waitingCount="0" stopTime="0.00" timeLoss="3.93" rerouteNo="0" devices="tripinfo_flow_we.28 routing_flow_we.28" vType="car" speedFactor="1.02" vaporized=""/>
    <tripinfo id="flow_we.29" depart="87.00" departLane="WN_0" departPos="5.10" departSpeed="0.00" departDelay="0.00" arrival="105.00" arrivalLane="NE_0" arrivalPos="89.60" arrivalSpeed="12.56" duration="18.00" routeLength="194.90" waitingTime="0.00" waitingCount="0" stopTime="0.00" timeLoss="3.40" rerouteNo="0" devices="tripinfo_flow_we.29 routing_flow_we.29" vType="car" speedFactor="0.97" vaporized=""/>
    <tripinfo id="flow_ew.24" depart="87.00" departLane="EN_0" departPos="5.10" departSpeed="0.00" departDelay="0.60" arrival="106.00" arrivalLane="NW_0" arrivalPos="89.60" arrivalSpeed="12.77" duration="19.00" routeLength="194.90" waitingTime="0.00" waitingCount="0" stopTime="0.00" timeLoss="3.73" rerouteNo="0" devices="tripinfo_flow_ew.24 routing_flow_ew.24" vType="car" speedFactor="0.94" vaporized=""/>
    <tripinfo id="flow_we.30" depart="90.00" departLane="WN_0" departPos="5.10" departSpeed="0.00" departDelay="0.00" arrival="107.00" arrivalLane="NE_0" arrivalPos="89.60" arrivalSpeed="13.55" duration="17.00" routeLength="194.90" waitingTime="0.00" waitingCount="0" stopTime="0.00" timeLoss="3.48" rerouteNo="0" devices="tripinfo_flow_we.30 routing_flow_we.30" vType="car" speedFactor="1.06" vaporized=""/>
    <tripinfo id="flow_ew.25" depart="90.00" departLane="EN_0" departPos="5.10" departSpeed="0.00" departDelay="0.00" arrival="109.00" arrivalLane="NW_0" arrivalPos="89.60" arrivalSpeed="12.11" duration="19.00" routeLength="194.90" waitingTime="0.00" waitingCount="0" stopTime="0.00" timeLoss="4.12" rerouteNo="0" devices="tripinfo_flow_ew.25 routing_flow_ew.25" vType="car" speedFactor="0.96" vaporized=""/>
    <tripinfo id="flow_we.31" depart="93.00" departLane="WN_0" departPos="5.10" departSpeed="0.00" departDelay="0.00" arrival="111.00" arrivalLane="NE_0" arrivalPos="89.60" arrivalSpeed="13.88" duration="18.00" routeLength="194.90" waitingTime="0.00" waitingCount="0" stopTime="0.00" timeLoss="3.75" rerouteNo="0" devices="tripinfo_flow_we.31 routing_flow_we.31" vType="car" speedFactor="1.03" vaporized=""/>
    <tripinfo id="flow_ew.26" depart="94.00" departLane="EN_0" departPos="5.10" departSpeed="0.00" departDelay="0.40" arrival="112.00" arrivalLane="NW_0" arrivalPos="89.60" arrivalSpeed="12.91" duration="18.00" routeLength="194.90" waitingTime="0.00" waitingCount="0" stopTime="0.00" timeLoss="3.69" rerouteNo="0" devices="tripinfo_flow_ew.26 routing_flow_ew.26" vType="car" speedFactor="0.98" vaporized=""/>
    <tripinfo id="flow_we.32" depart="96.00" departLane="WN_0" departPos="5.10" departSpeed="0.00" departDelay="0.00" arrival="114.00" arrivalLane="NE_0" arrivalPos="89.60" arrivalSpeed="13.52" duration="18.00" routeLength="194.90" waitingTime="0.00" waitingCount="0" stopTime="0.00" timeLoss="3.56" rerouteNo="0" devices="tripinfo_flow_we.32 routing_flow_we.32" vType="car" speedFactor="1.01" vaporized=""/>
    <tripinfo id="flow_ew.27" depart="98.00" departLane="EN_0" departPos="5.10" departSpeed="0.00" departDelay="0.80" arrival="116.00" arrivalLane="NW_0" arrivalPos="89.60" arrivalSpeed="13.82" duration="18.00" routeLength="194.90" waitingTime="0.00" waitingCount="0" stopTime="0.00" timeLoss="3.92" rerouteNo="0" devices="tripinfo_flow_ew.27 routing_flow_ew.27" vType="car" speedFactor="1.03" vaporized=""/>
    <tripinfo id="flow_we.33" depart="99.00" departLane="WN_0" departPos="5.10" departSpeed="0.00" departDelay="0.00" arrival="117.00" arrivalLane="NE_0" arrivalPos="89.60" arrivalSpeed="12.88" duration="18.00" routeLength="194.90" waitingTime="0.00" waitingCount="0" stopTime="0.00" timeLoss="3.88" rerouteNo="0" devices="tripinfo_flow_we.33 routing_flow_we.33" vType="car" speedFactor="1.00" vaporized=""/>
    <tripinfo id="flow_we.34" depart="102.00" departLane="WN_0" departPos="5.10" departSpeed="0.00" departDelay="0.00" arrival="119.00" arrivalLane="NE_0" arrivalPos="89.60" arrivalSpeed="15.05" duration="17.00" routeLength="194.90" waitingTime="0.00" waitingCount="0" stopTime="0.00" timeLoss="4.34" rerouteNo="0" devices="tripinfo_flow_we.34 routing_flow_we.34" vType="car" speedFactor="1.15" vaporized=""/>