<?xml version="1.0" encoding="UTF-8"?>

<!-- generated on 2025-09-20 03:38:29 by Eclipse SUMO GUI Version 1.24.0
<sumoConfiguration xmlns:xsi="http://www.w3.org/2001/XMLSchema-instance" xsi:noNamespaceSchemaLocation="http://sumo.dlr.de/xsd/sumoConfiguration.xsd">

    <input>
        <net-file value="simulation/intersection.net.xml"/>
        <route-files value="simulation/intersection.rou.xml,simulation/emergency.rou.xml"/>
    </input>

    <output>
        <summary-output value="outputs/intersection_after_ai_summary.xml"/>
        <tripinfo-output value="outputs/intersection_after_ai_tripinfo.xml"/>
    </output>

    <time>
        <begin value="0"/>
    </time>

    <traci_server>
        <remote-port value="8813"/>
    </traci_server>

    <gui_only>
        <start value="true"/>
    </gui_only>

</sumoConfiguration>
-->

<tripinfos xmlns:xsi="http://www.w3.org/2001/XMLSchema-instance" xsi:noNamespaceSchemaLocation="http://sumo.dlr.de/xsd/tripinfo_file.xsd">
    <tripinfo id="flow_ns.0" depart="0.00" departLane="NN_0" departPos="5.10" departSpeed="0.00" departDelay="0.00" arrival="19.00" arrivalLane="NS_0" arrivalPos="89.60" arrivalSpeed="12.70" duration="19.00" routeLength="194.90" waitingTime="0.00" waitingCount="0" stopTime="0.00" timeLoss="3.52" rerouteNo="0" devices="tripinfo_flow_ns.0 routing_flow_ns.0" vType="car" speedFactor="0.94" vaporized=""/>
    <tripinfo id="emergency_0" depart="10.00" departLane="WN_1" departPos="6.60" departSpeed="0.00" departDelay="0.00" arrival="55.00" arrivalLane="NE_1" arrivalPos="89.60" arrivalSpeed="12.41" duration="45.00" routeLength="193.40" waitingTime="23.00" waitingCount="1" stopTime="0.00" timeLoss="30.29" rerouteNo="0" devices="tripinfo_emergency_0" vType="emergency_vehicle" speedFactor="1.00" vaporized=""/>
    <tripinfo id="flow_we.0" depart="0.00" departLane="WN_0" departPos="5.10" departSpeed="0.00" departDelay="0.00" arrival="55.00" arrivalLane="NE_0" arrivalPos="89.60" arrivalSpeed="14.43" duration="55.00" routeLength="194.90" waitingTime="32.00" waitingCount="1" stopTime="0.00" timeLoss="41.60" rerouteNo="0" devices="tripinfo_flow_we.0 routing_flow_we.0" vType="car" speedFactor="1.06" vaporized=""/>
    <tripinfo id="flow_we.1" depart="12.00" departLane="WN_0" departPos="5.10" departSpeed="0.00" departDelay="0.00" arrival="57.00" arrivalLane="NE_0" arrivalPos="89.60" arrivalSpeed="13.64" duration="45.00" routeLength="194.90" waitingTime="22.00" waitingCount="1" stopTime="0.00" timeLoss="30.98" rerouteNo="0" devices="tripinfo_flow_we.1 routing_flow_we.1" vType="car" speedFactor="1.01" vaporized=""/>
    <tripinfo id="flow_we.2" depart="24.00" departLane="WN_0" departPos="5.10" departSpeed="0.00" departDelay="0.00" arrival="58.00" arrivalLane="NE_1" arrivalPos="89.60" arrivalSpeed="14.81" duration="34.00" routeLength="194.90" waitingTime="9.00" waitingCount="1" stopTime="0.00" timeLoss="20.28" rerouteNo="0" devices="tripinfo_flow_we.2 routing_flow_we.2" vType="car" speedFactor="1.08" vaporized=""/>
    <tripinfo id="flow_we.3" depart="36.00" departLane="WN_0" departPos="5.10" departSpeed="0.00" departDelay="0.00" arrival="59.00" arrivalLane="NE_0" arrivalPos="89.60" arrivalSpeed="13.67" duration="23.00" routeLength="194.90" waitingTime="0.00" waitingCount="0" stopTime="0.00" timeLoss="9.01" rerouteNo="0" devices="tripinfo_flow_we.3 routing_flow_we.3" vType="car" speedFactor="1.03" vaporized=""/>
    <tripinfo id="flow_we.4" depart="48.00" departLane="WN_0" departPos="5.10" departSpeed="0.00" departDelay="0.00" arrival="66.00" arrivalLane="NE_0" arrivalPos="89.60" arrivalSpeed="14.03" duration="18.00" routeLength="194.90" waitingTime="0.00" waitingCount="0" stopTime="0.00" timeLoss="3.71" rerouteNo="0" devices="tripinfo_flow_we.4 routing_flow_we.4" vType="car" speedFactor="1.05" vaporized=""/>
    <tripinfo id="flow_we.5" depart="60.00" departLane="WN_0" departPos="5.10" departSpeed="0.00" departDelay="0.00" arrival="80.00" arrivalLane="NE_0" arrivalPos="89.60" arrivalSpeed="11.90" duration="20.00" routeLength="194.90" waitingTime="0.00" waitingCount="0" stopTime="0.00" timeLoss="3.85" rerouteNo="0" devices="tripinfo_flow_we.5 routing_flow_we.5" vType="car" speedFactor="0.89" vaporized=""/>
    <tripinfo id="flow_we.6" depart="72.00" departLane="WN_0" departPos="5.10" departSpeed="0.00" departDelay="0.00" arrival="92.00" arrivalLane="NE_0" arrivalPos="89.60" arrivalSpeed="12.57" duration="20.00" routeLength="194.90" waitingTime="0.00" waitingCount="0" stopTime="0.00" timeLoss="4.28" rerouteNo="0" devices="tripinfo_flow_we.6 routing_flow_we.6" vType="car" speedFactor="0.94" vaporized=""/>
    <tripinfo id="flow_we.7" depart="84.00" departLane="WN_0" departPos="5.10" departSpeed="0.00" departDelay="0.00" arrival="101.00" arrivalLane="NE_0" arrivalPos="89.60" arrivalSpeed="14.09" duration="17.00" routeLength="194.90" waitingTime="0.00" waitingCount="0" stopTime="0.00" timeLoss="3.80" rerouteNo="0" devices="tripinfo_flow_we.7 routing_flow_we.7" vType="car" speedFactor="1.09" vaporized=""/>
    <tripinfo id="flow_ns.1" depart="36.00" departLane="NN_0" departPos="5.10" departSpeed="0.00" departDelay="0.00" arrival="120.00" arrivalLane="NS_0" arrivalPos="89.60" arrivalSpeed="11.08" duration="84.00" routeLength="194.90" waitingTime="58.00" waitingCount="1" stopTime="0.00" timeLoss="66.78" rerouteNo="0" devices="tripinfo_flow_ns.1 routing_flow_ns.1" vType="car" speedFactor="0.83" vaporized=""/>
    <tripinfo id="flow_ns.2" depart="72.00" departLane="NN_0" departPos="5.10" departSpeed="0.00" departDelay="0.00" arrival="120.00" arrivalLane="NS_1" arrivalPos="89.60" arrivalSpeed="10.81" duration="48.00" routeLength="194.90" waitingTime="23.00" waitingCount="1" stopTime="0.00" timeLoss="31.18" rerouteNo="0" devices="tripinfo_flow_ns.2 routing_flow_ns.2" vType="car" speedFactor="0.86" vaporized=""/>
    <tripinfo id="flow_ns.3" depart="108.00" departLane="NN_0" departPos="5.10" departSpeed="0.00" departDelay="0.00" arrival="126.00" arrivalLane="NS_0" arrivalPos="89.60" arrivalSpeed="15.35" duration="18.00" routeLength="194.90" waitingTime="0.00" waitingCount="0" stopTime="0.00" timeLoss="4.63" rerouteNo="0" devices="tripinfo_flow_ns.3 routing_flow_ns.3" vType="car" speedFactor="1.12" vaporized=""/>
    <tripinfo id="flow_ns.4" depart="144.00" departLane="NN_0" departPos="5.10" departSpeed="0.00" departDelay="0.00" arrival="163.00" arrivalLane="NS_0" arrivalPos="89.60" arrivalSpeed="12.80" duration="19.00" routeLength="194.90" waitingTime="0.00" waitingCount="0" stopTime="0.00" timeLoss="3.24" rerouteNo="0" devices="tripinfo_flow_ns.4 routing_flow_ns.4" vType="car" speedFactor="0.94" vaporized=""/>
    <tripinfo id="flow_we.8" depart="96.00" departLane="WN_0" departPos="5.10" departSpeed="0.00" departDelay="0.00" arrival="179.00" arrivalLane="NE_0" arrivalPos="89.60" arrivalSpeed="13.65" duration="83.00" routeLength="194.90" waitingTime="59.00" waitingCount="1" stopTime="0.00" timeLoss="68.92" rerouteNo="0" devices="tripinfo_flow_we.8 routing_flow_we.8" vType="car" speedFactor="1.03" vaporized=""/>
    <tripinfo id="flow_we.9" depart="108.00" departLane="WN_0" departPos="5.10" departSpeed="0.00" departDelay="0.00" arrival="179.00" arrivalLane="NE_1" arrivalPos="89.60" arrivalSpeed="14.03" duration="71.00" routeLength="194.90" waitingTime="46.00" waitingCount="1" stopTime="0.00" timeLoss="56.83" rerouteNo="0" devices="tripinfo_flow_we.9 routing_flow_we.9" vType="car" speedFactor="1.05" vaporized=""/>
    <tripinfo id="flow_we.10" depart="120.00" departLane="WN_0" departPos="5.10" departSpeed="0.00" departDelay="0.00" arrival="181.00" arrivalLane="NE_0" arrivalPos="89.60" arrivalSpeed="13.18" duration="61.00" routeLength="194.90" waitingTime="37.00" waitingCount="1" stopTime="0.00" timeLoss="46.31" rerouteNo="0" devices="tripinfo_flow_we.10 routing_flow_we.10" vType="car" speedFactor="0.99" vaporized=""/>
    <tripinfo id="flow_we.11" depart="132.00" departLane="WN_0" departPos="5.10" departSpeed="0.00" departDelay="0.00" arrival="181.00" arrivalLane="NE_1" arrivalPos="89.60" arrivalSpeed="12.04" duration="49.00" routeLength="194.90" waitingTime="24.00" waitingCount="1" stopTime="0.00" timeLoss="33.60" rerouteNo="0" devices="tripinfo_flow_we.11 routing_flow_we.11" vType="car" speedFactor="0.93" vaporized=""/>
    <tripinfo id="flow_we.12" depart="144.00" departLane="WN_0" departPos="5.10" departSpeed="0.00" departDelay="0.00" arrival="183.00" arrivalLane="NE_0" arrivalPos="89.60" arrivalSpeed="12.14" duration="39.00" routeLength="194.90" waitingTime="14.00" waitingCount="1" stopTime="0.00" timeLoss="23.02" rerouteNo="0" devices="tripinfo_flow_we.12 routing_flow_we.12" vType="car" speedFactor="0.88" vaporized=""/>
    <tripinfo id="flow_we.13" depart="156.00" departLane="WN_0" departPos="5.10" departSpeed="0.00" departDelay="0.00" arrival="183.00" arrivalLane="NE_1" arrivalPos="89.60" arrivalSpeed="12.17" duration="27.00" routeLength="194.90" waitingTime="0.00" waitingCount="0" stopTime="0.00" timeLoss="11.54" rerouteNo="0" devices="tripinfo_flow_we.13 routing_flow_we.13" vType="car" speedFactor="0.94" vaporized=""/>
    <tripinfo id="flow_we.14" depart="168.00" departLane="WN_0" departPos="5.10" departSpeed="0.00" departDelay="0.00" arrival="185.00" arrivalLane="NE_0" arrivalPos="89.60" arrivalSpeed="15.06" duration="17.00" routeLength="194.90" waitingTime="0.00" waitingCount="0" stopTime="0.00" timeLoss="4.55" rerouteNo="0" devices="tripinfo_flow_we.14 routing_flow_we.14" vType="car" speedFactor="1.16" vaporized=""/>
    <tripinfo id="flow_we.15" depart="180.00" departLane="WN_0" departPos="5.10" departSpeed="0.00" departDelay="0.00" arrival="198.00" arrivalLane="NE_0" arrivalPos="89.60" arrivalSpeed="13.15" duration="18.00" routeLength="194.90" waitingTime="0.00" waitingCount="0" stopTime="0.00" timeLoss="3.70" rerouteNo="0" devices="tripinfo_flow_we.15 routing_flow_we.15" vType="car" speedFactor="1.02" vaporized=""/>
    <tripinfo id="flow_we.16" depart="192.00" departLane="WN_0" departPos="5.10" departSpeed="0.00" departDelay="0.00" arrival="210.00" arrivalLane="NE_0" arrivalPos="89.60" arrivalSpeed="12.44" duration="18.00" routeLength="194.90" waitingTime="0.00" waitingCount="0" stopTime="0.00" timeLoss="3.57" rerouteNo="0" devices="tripinfo_flow_we.16 routing_flow_we.16" vType="car" speedFactor="0.97" vaporized=""/>
    <tripinfo id="flow_we.17" depart="204.00" departLane="WN_0" departPos="5.10" departSpeed="0.00" departDelay="0.00" arrival="224.00" arrivalLane="NE_0" arrivalPos="89.60" arrivalSpeed="11.43" duration="20.00" routeLength="194.90" waitingTime="0.00" waitingCount="0" stopTime="0.00" timeLoss="4.13" rerouteNo="0" devices="tripinfo_flow_we.17 routing_flow_we.17" vType="car" speedFactor="0.89" vaporized=""/>
    <tripinfo id="flow_we.18" depart="216.00" departLane="WN_0" departPos="5.10" departSpeed="0.00" departDelay="0.00" arrival="237.00" arrivalLane="NE_0" arrivalPos="89.60" arrivalSpeed="10.91" duration="21.00" routeLength="194.90" waitingTime="0.00" waitingCount="0" stopTime="0.00" timeLoss="3.24" rerouteNo="0" devices="tripinfo_flow_we.18 routing_flow_we.18" vType="car" speedFactor="0.83" vaporized=""/>
    <tripinfo id="flow_ns.5" depart="180.00" departLane="NN_0" departPos="5.10" departSpeed="0.00" departDelay="0.00" arrival="244.00" arrivalLane="NS_0" arrivalPos="89.60" arrivalSpeed="13.40" duration="64.00" routeLength="194.90" waitingTime="39.00" waitingCount="1" stopTime="0.00" timeLoss="49.26" rerouteNo="0" devices="tripinfo_flow_ns.5 routing_flow_ns.5" vType="car" speedFactor="1.01" vaporized=""/>
    <tripinfo id="flow_ns.6" depart="216.00" departLane="NN_0" departPos="5.10" departSpeed="0.00" departDelay="0.00" arrival="244.00" arrivalLane="NS_1" arrivalPos="89.60" arrivalSpeed="11.26" duration="28.00" routeLength="194.90" waitingTime="3.00" waitingCount="1" stopTime="0.00" timeLoss="11.79" rerouteNo="0" devices="tripinfo_flow_ns.6 routing_flow_ns.6" vType="car" speedFactor="0.87" vaporized=""/>
    <tripinfo id="flow_ns.7" depart="252.00" departLane="NN_0" departPos="5.10" departSpeed="0.00" departDelay="0.00" arrival="271.00" arrivalLane="NS_0" arrivalPos="89.60" arrivalSpeed="12.45" duration="19.00" routeLength="194.90" waitingTime="0.00" waitingCount="0" stopTime="0.00" timeLoss="3.90" rerouteNo="0" devices="tripinfo_flow_ns.7 routing_flow_ns.7" vType="car" speedFactor="0.93" vaporized=""/>
    <tripinfo id="flow_we.20" depart="240.00" departLane="WN_0" departPos="5.10" departSpeed="0.00" departDelay="0.00" arrival="294.00" arrivalLane="NE_1" arrivalPos="89.60" arrivalSpeed="11.92" duration="54.00" routeLength="194.90" waitingTime="30.00" waitingCount="1" stopTime="0.00" timeLoss="38.57" rerouteNo="0" devices="tripinfo_flow_we.20 routing_flow_we.20" vType="car" speedFactor="0.95" vaporized=""/>
    <tripinfo id="flow_we.19" depart="228.00" departLane="WN_0" departPos="5.10" departSpeed="0.00" departDelay="0.00" arrival="295.00" arrivalLane="NE_0" arrivalPos="89.60" arrivalSpeed="12.13" duration="67.00" routeLength="194.90" waitingTime="42.00" waitingCount="1" stopTime="0.00" timeLoss="50.76" rerouteNo="0" devices="tripinfo_flow_we.19 routing_flow_we.19" vType="car" speedFactor="0.92" vaporized=""/>
    <tripinfo id="flow_we.22" depart="264.00" departLane="WN_0" departPos="5.10" departSpeed="0.00" departDelay="0.00" arrival="295.00" arrivalLane="NE_1" arrivalPos="89.60" arrivalSpeed="14.79" duration="31.00" routeLength="194.90" waitingTime="7.00" waitingCount="1" stopTime="0.00" timeLoss="19.06" rerouteNo="0" devices="tripinfo_flow_we.22 routing_flow_we.22" vType="car" speedFactor="1.18" vaporized=""/>
    <tripinfo id="flow_we.21" depart="252.00" departLane="WN_0" departPos="5.10" departSpeed="0.00" departDelay="0.00" arrival="296.00" arrivalLane="NE_0" arrivalPos="89.60" arrivalSpeed="14.15" duration="44.00" routeLength="194.90" waitingTime="19.00" waitingCount="1" stopTime="0.00" timeLoss="31.37" rerouteNo="0" devices="tripinfo_flow_we.21 routing_flow_we.21" vType="car" speedFactor="1.13" vaporized=""/>
    <tripinfo id="flow_we.23" depart="276.00" departLane="WN_0" departPos="5.10" departSpeed="0.00" departDelay="0.00" arrival="298.00" arrivalLane="NE_0" arrivalPos="89.60" arrivalSpeed="14.85" duration="22.00" routeLength="194.90" waitingTime="0.00" waitingCount="0" stopTime="0.00" timeLoss="9.28" rerouteNo="0" devices="tripinfo_flow_we.23 routing_flow_we.23" vType="car" speedFactor="1.15" vaporized=""/>
    <tripinfo id="flow_we.24" depart="288.00" departLane="WN_0" departPos="5.10" departSpeed="0.00" departDelay="0.00" arrival="306.00" arrivalLane="NE_0" arrivalPos="89.60" arrivalSpeed="13.16" duration="18.00" routeLength="194.90" waitingTime="0.00" waitingCount="0" stopTime="0.00" timeLoss="3.33" rerouteNo="0" devices="tripinfo_flow_we.24 routing_flow_we.24" vType="car" speedFactor="1.01" vaporized=""/>
    <tripinfo id="flow_we.25" depart="300.00" departLane="WN_0" departPos="5.10" departSpeed="0.00" departDelay="0.00" arrival="318.00" arrivalLane="NE_0" arrivalPos="89.60" arrivalSpeed="12.73" duration="18.00" routeLength="194.90" waitingTime="0.00" waitingCount="0" stopTime="0.00" timeLoss="3.90" rerouteNo="0" devices="tripinfo_flow_we.25 routing_flow_we.25" vType="car" speedFactor="0.99" vaporized=""/>
    <tripinfo id="flow_we.26" depart="312.00" departLane="WN_0" departPos="5.10" departSpeed="0.00" departDelay="0.00" arrival="330.00" arrivalLane="NE_0" arrivalPos="89.60" arrivalSpeed="13.65" duration="18.00" routeLength="194.90" waitingTime="0.00" waitingCount="0" stopTime="0.00" timeLoss="3.92" rerouteNo="0" devices="tripinfo_flow_we.26 routing_flow_we.26" vType="car" speedFactor="1.02" vaporized=""/>
    <tripinfo id="flow_we.27" depart="324.00" departLane="WN_0" departPos="5.10" departSpeed="0.00" departDelay="0.00" arrival="342.00" arrivalLane="NE_0" arrivalPos="89.60" arrivalSpeed="12.75" duration="18.00" routeLength="194.90" waitingTime="0.00" waitingCount="0" stopTime="0.00" timeLoss="3.57" rerouteNo="0" devices="tripinfo_flow_we.27 routing_flow_we.27" vType="car" speedFactor="0.97" vaporized=""/>
    <tripinfo id="flow_ns.8" depart="288.00" departLane="NN_0" departPos="5.10" departSpeed="0.00" departDelay="0.00" arrival="357.00" arrivalLane="NS_0" arrivalPos="89.60" arrivalSpeed="15.25" duration="69.00" routeLength="194.90" waitingTime="46.00" waitingCount="1" stopTime="0.00" timeLoss="56.81" rerouteNo="0" devices="tripinfo_flow_ns.8 routing_flow_ns.8" vType="car" speedFactor="1.17" vaporized=""/>
    <tripinfo id="flow_ns.9" depart="324.00" departLane="NN_0" departPos="5.10" departSpeed="0.00" departDelay="0.00" arrival="358.00" arrivalLane="NS_1" arrivalPos="89.60" arrivalSpeed="15.68" duration="34.00" routeLength="194.90" waitingTime="9.00" waitingCount="1" stopTime="0.00" timeLoss="21.55" rerouteNo="0" devices="tripinfo_flow_ns.9 routing_flow_ns.9" vType="car" speedFactor="1.18" vaporized=""/>
    <tripinfo id="flow_ns.10" depart="360.00" departLane="NN_0" departPos="5.10" departSpeed="0.00" departDelay="0.00" arrival="379.00" arrivalLane="NS_0" arrivalPos="89.60" arrivalSpeed="12.29" duration="19.00" routeLength="194.90" waitingTime="0.00" waitingCount="0" stopTime="0.00" timeLoss="3.79" rerouteNo="0" devices="tripinfo_flow_ns.10 routing_flow_ns.10" vType="car" speedFactor="0.96" vaporized=""/>
    <tripinfo id="flow_we.28" depart="336.00" departLane="WN_0" departPos="5.10" departSpeed="0.00" departDelay="0.00" arrival="407.00" arrivalLane="NE_1" arrivalPos="89.60" arrivalSpeed="14.79" duration="71.00" routeLength="194.90" waitingTime="49.00" waitingCount="1" stopTime="0.00" timeLoss="58.05" rerouteNo="0" devices="tripinfo_flow_we.28 routing_flow_we.28" vType="car" speedFactor="1.10" vaporized=""/>
    <tripinfo id="flow_we.29" depart="348.00" departLane="WN_0" departPos="5.10" departSpeed="0.00" departDelay="0.00" arrival="408.00" arrivalLane="NE_0" arrivalPos="89.60" arrivalSpeed="12.33" duration="60.00" routeLength="194.90" waitingTime="35.00" waitingCount="1" stopTime="0.00" timeLoss="44.23" rerouteNo="0" devices="tripinfo_flow_we.29 routing_flow_we.29" vType="car" speedFactor="0.90" vaporized=""/>
    <tripinfo id="flow_we.30" depart="360.00" departLane="WN_0" departPos="5.10" departSpeed="0.00" departDelay="0.00" arrival="410.00" arrivalLane="NE_0" arrivalPos="89.60" arrivalSpeed="13.92" duration="50.00" routeLength="194.90" waitingTime="25.00" waitingCount="1" stopTime="0.00" timeLoss="35.82" rerouteNo="0" devices="tripinfo_flow_we.30 routing_flow_we.30" vType="car" speedFactor="1.03" vaporized=""/>
    <tripinfo id="flow_we.31" depart="372.00" departLane="WN_0" departPos="5.10" departSpeed="0.00" departDelay="0.00" arrival="410.00" arrivalLane="NE_1" arrivalPos="89.60" arrivalSpeed="14.72" duration="38.00" routeLength="194.90" waitingTime="14.00" waitingCount="1" stopTime="0.00" timeLoss="24.28" rerouteNo="0" devices="tripinfo_flow_we.31 routing_flow_we.31" vType="car" speedFactor="1.09" vaporized=""/>
    <tripinfo id="flow_we.32" depart="384.00" departLane="WN_0" departPos="5.10" departSpeed="0.00" departDelay="0.00" arrival="412.00" arrivalLane="NE_0" arrivalPos="89.60" arrivalSpeed="13.67" duration="28.00" routeLength="194.90" waitingTime="4.00" waitingCount="1" stopTime="0.00" timeLoss="13.64" rerouteNo="0" devices="tripinfo_flow_we.32 routing_flow_we.32" vType="car" speedFactor="1.04" vaporized=""/>
    <tripinfo id="flow_we.33" depart="396.00" departLane="WN_0" departPos="5.10" departSpeed="0.00" departDelay="0.00" arrival="414.00" arrivalLane="NE_0" arrivalPos="89.60" arrivalSpeed="13.59" duration="18.00" routeLength="194.90" waitingTime="0.00" waitingCount="0" stopTime="0.00" timeLoss="3.89" rerouteNo="0" devices="tripinfo_flow_we.33 routing_flow_we.33" vType="car" speedFactor="1.04" vaporized=""/>
    <tripinfo id="flow_we.34" depart="408.00" departLane="WN_0" departPos="5.10" departSpeed="0.00" departDelay="0.00" arrival="426.00" arrivalLane="NE_0" arrivalPos="89.60" arrivalSpeed="12.66" duration="18.00" routeLength="194.90" waitingTime="0.00" waitingCount="0" stopTime="0.00" timeLoss="3.73" rerouteNo="0" devices="tripinfo_flow_we.34 routing_flow_we.34" vType="car" speedFactor="1.00" vaporized=""/>
    <tripinfo id="flow_we.35" depart="420.00" departLane="WN_0" departPos="5.10" departSpeed="0.00" departDelay="0.00" arrival="439.00" arrivalLane="NE_0" arrivalPos="89.60" arrivalSpeed="12.03" duration="19.00" routeLength="194.90" waitingTime="0.00" waitingCount="0" stopTime="0.00" timeLoss="3.14" rerouteNo="0" devices="tripinfo_flow_we.35 routing_flow_we.35" vType="car" speedFactor="0.90" vaporized=""/>
    <tripinfo id="flow_we.36" depart="432.00" departLane="WN_0" departPos="5.10" departSpeed="0.00" departDelay="0.00" arrival="452.00" arrivalLane="NE_0" arrivalPos="89.60" arrivalSpeed="11.77" duration="20.00" routeLength="194.90" waitingTime="0.00" waitingCount="0" stopTime="0.00" timeLoss="3.40" rerouteNo="0" devices="tripinfo_flow_we.36 routing_flow_we.36" vType="car" speedFactor="0.88" vaporized=""/>
    <tripinfo id="flow_ns.11" depart="396.00" departLane="NN_0" departPos="5.10" departSpeed="0.00" departDelay="0.00" arrival="466.00" arrivalLane="NS_0" arrivalPos="89.60" arrivalSpeed="14.25" duration="70.00" routeLength="194.90" waitingTime="47.00" waitingCount="1" stopTime="0.00" timeLoss="57.04" rerouteNo="0" devices="tripinfo_flow_ns.11 routing_flow_ns.11" vType="car" speedFactor="1.09" vaporized=""/>
    <tripinfo id="flow_ns.12" depart="432.00" departLane="NN_0" departPos="5.10" departSpeed="0.00" departDelay="0.00" arrival="468.00" arrivalLane="NS_1" arrivalPos="89.60" arrivalSpeed="11.63" duration="36.00" routeLength="194.90" waitingTime="10.00" waitingCount="1" stopTime="0.00" timeLoss="18.85" rerouteNo="0" devices="tripinfo_flow_ns.12 routing_flow_ns.12" vType="car" speedFactor="0.85" vaporized=""/>
    <tripinfo id="flow_ns.13" depart="468.00" departLane="NN_0" departPos="5.10" departSpeed="0.00" departDelay="0.00" arrival="485.00" arrivalLane="NS_0" arrivalPos="89.60" arrivalSpeed="13.96" duration="17.00" routeLength="194.90" waitingTime="0.00" waitingCount="0" stopTime="0.00" timeLoss="3.91" rerouteNo="0" devices="tripinfo_flow_ns.13 routing_flow_ns.13" vType="car" speedFactor="1.10" vaporized=""/>
    <tripinfo id="flow_we.38" depart="456.00" departLane="WN_0" departPos="5.10" departSpeed="0.00" departDelay="0.00" arrival="516.00" arrivalLane="NE_0" arrivalPos="89.60" arrivalSpeed="15.70" duration="60.00" routeLength="194.90" waitingTime="37.00" waitingCount="1" stopTime="0.00" timeLoss="47.50" rerouteNo="0" devices="tripinfo_flow_we.38 routing_flow_we.38" vType="car" speedFactor="1.17" vaporized=""/>
    <tripinfo id="flow_we.37" depart="444.00" departLane="WN_0" departPos="5.10" departSpeed="0.00" departDelay="0.00" arrival="518.00" arrivalLane="NE_0" arrivalPos="89.60" arrivalSpeed="11.18" duration="74.00" routeLength="194.90" waitingTime="49.00" waitingCount="1" stopTime="0.00" timeLoss="57.09" rerouteNo="0" devices="tripinfo_flow_we.37 routing_flow_we.37" vType="car" speedFactor="0.85" vaporized=""/>
    <tripinfo id="flow_we.40" depart="480.00" departLane="WN_0" departPos="5.10" departSpeed="0.00" departDelay="0.00" arrival="519.00" arrivalLane="NE_1" arrivalPos="89.60" arrivalSpeed="13.27" duration="39.00" routeLength="194.90" waitingTime="15.00" waitingCount="1" stopTime="0.00" timeLoss="24.18" rerouteNo="0" devices="tripinfo_flow_we.40 routing_flow_we.40" vType="car" speedFactor="1.00" vaporized=""/>
    <tripinfo id="flow_we.39" depart="468.00" departLane="WN_0" departPos="5.10" departSpeed="0.00" departDelay="0.00" arrival="520.00" arrivalLane="NE_0" arrivalPos="89.60" arrivalSpeed="13.64" duration="52.00" routeLength="194.90" waitingTime="27.00" waitingCount="1" stopTime="0.00" timeLoss="37.38" rerouteNo="0" devices="tripinfo_flow_we.39 routing_flow_we.39" vType="car" speedFactor="1.02" vaporized=""/>
    <tripinfo id="flow_we.41" depart="492.00" departLane="WN_0" departPos="5.10" departSpeed="0.00" departDelay="0.00" arrival="521.00" arrivalLane="NE_0" arrivalPos="89.60" arrivalSpeed="13.70" duration="29.00" routeLength="194.90" waitingTime="5.00" waitingCount="1" stopTime="0.00" timeLoss="14.82" rerouteNo="0" devices="tripinfo_flow_we.41 routing_flow_we.41" vType="car" speedFactor="1.00" vaporized=""/>
    <tripinfo id="flow_we.42" depart="504.00" departLane="WN_0" departPos="5.10" departSpeed="0.00" departDelay="0.00" arrival="523.00" arrivalLane="NE_0" arrivalPos="89.60" arrivalSpeed="11.98" duration="19.00" routeLength="194.90" waitingTime="0.00" waitingCount="0" stopTime="0.00" timeLoss="3.31" rerouteNo="0" devices="tripinfo_flow_we.42 routing_flow_we.42" vType="car" speedFactor="0.90" vaporized=""/>
    <tripinfo id="flow_we.43" depart="516.00" departLane="WN_0" departPos="5.10" departSpeed="0.00" departDelay="0.00" arrival="534.00" arrivalLane="NE_0" arrivalPos="89.60" arrivalSpeed="13.11" duration="18.00" routeLength="194.90" waitingTime="0.00" waitingCount="0" stopTime="0.00" timeLoss="3.70" rerouteNo="0" devices="tripinfo_flow_we.43 routing_flow_we.43" vType="car" speedFactor="1.02" vaporized=""/>
    <tripinfo id="flow_we.44" depart="528.00" departLane="WN_0" departPos="5.10" departSpeed="0.00" departDelay="0.00" arrival="546.00" arrivalLane="NE_0" arrivalPos="89.60" arrivalSpeed="13.41" duration="18.00" routeLength="194.90" waitingTime="0.00" waitingCount="0" stopTime="0.00" timeLoss="3.13" rerouteNo="0" devices="tripinfo_flow_we.44 routing_flow_we.44" vType="car" speedFactor="0.97" vaporized=""/>
    <tripinfo id="flow_we.45" depart="540.00" departLane="WN_0" departPos="5.10" departSpeed="0.00" departDelay="0.00" arrival="557.00" arrivalLane="NE_0" arrivalPos="89.60" arrivalSpeed="14.38" duration="17.00" routeLength="194.90" waitingTime="0.00" waitingCount="0" stopTime="0.00" timeLoss="3.79" rerouteNo="0" devices="tripinfo_flow_we.45 routing_flow_we.45" vType="car" speedFactor="1.08" vaporized=""/>
    <tripinfo id="flow_ns.14" depart="504.00" departLane="NN_0" departPos="5.10" departSpeed="0.00" departDelay="0.00" arrival="574.00" arrivalLane="NS_0" arrivalPos="89.60" arrivalSpeed="15.29" duration="70.00" routeLength="194.90" waitingTime="47.00" waitingCount="1" stopTime="0.00" timeLoss="57.13" rerouteNo="0" devices="tripinfo_flow_ns.14 routing_flow_ns.14" vType="car" speedFactor="1.14" vaporized=""/>
    <tripinfo id="flow_ns.15" depart="540.00" departLane="NN_0" departPos="5.10" departSpeed="0.00" departDelay="0.00" arrival="574.00" arrivalLane="NS_1" arrivalPos="89.60" arrivalSpeed="14.28" duration="34.00" routeLength="194.90" waitingTime="11.00" waitingCount="1" stopTime="0.00" timeLoss="21.08" rerouteNo="0" devices="tripinfo_flow_ns.15 routing_flow_ns.15" vType="car" speedFactor="1.12" vaporized=""/>
    <tripinfo id="flow_ns.16" depart="576.00" departLane="NN_0" departPos="5.10" departSpeed="0.00" departDelay="0.00" arrival="596.00" arrivalLane="NS_0" arrivalPos="89.60" arrivalSpeed="11.05" duration="20.00" routeLength="194.90" waitingTime="0.00" waitingCount="0" stopTime="0.00" timeLoss="3.34" rerouteNo="0" devices="tripinfo_flow_ns.16 routing_flow_ns.16" vType="car" speedFactor="0.88" vaporized=""/>
    <tripinfo id="flow_we.47" depart="564.00" departLane="WN_0" departPos="5.10" departSpeed="0.00" departDelay="0.00" arrival="624.00" arrivalLane="NE_0" arrivalPos="89.60" arrivalSpeed="13.32" duration="60.00" routeLength="194.90" waitingTime="37.00" waitingCount="1" stopTime="0.00" timeLoss="45.55" rerouteNo="0" devices="tripinfo_flow_we.47 routing_flow_we.47" vType="car" speedFactor="0.99" vaporized=""/>
    <tripinfo id="flow_we.46" depart="552.00" departLane="WN_0" departPos="5.10" departSpeed="0.00" departDelay="0.00" arrival="626.00" arrivalLane="NE_0" arrivalPos="89.60" arrivalSpeed="13.98" duration="74.00" routeLength="194.90" waitingTime="48.00" waitingCount="1" stopTime="0.00" timeLoss="59.63" rerouteNo="0" devices="tripinfo_flow_we.46 routing_flow_we.46" vType="car" speedFactor="1.02" vaporized=""/>
    <tripinfo id="flow_we.49" depart="588.00" departLane="WN_0" departPos="5.10" departSpeed="0.00" departDelay="0.00" arrival="627.00" arrivalLane="NE_1" arrivalPos="89.60" arrivalSpeed="12.04" duration="39.00" routeLength="194.90" waitingTime="13.00" waitingCount="1" stopTime="0.00" timeLoss="23.13" rerouteNo="0" devices="tripinfo_flow_we.49 routing_flow_we.49" vType="car" speedFactor="0.91" vaporized=""/>
    <tripinfo id="flow_we.48" depart="576.00" departLane="WN_0" departPos="5.10" departSpeed="0.00" departDelay="0.00" arrival="628.00" arrivalLane="NE_0" arrivalPos="89.60" arrivalSpeed="11.91" duration="52.00" routeLength="194.90" waitingTime="26.00" waitingCount="1" stopTime="0.00" timeLoss="36.44" rerouteNo="0" devices="tripinfo_flow_we.48 routing_flow_we.48" vType="car" speedFactor="0.94" vaporized=""/>
    <tripinfo id="flow_we.50" depart="600.00" departLane="WN_0" departPos="5.10" departSpeed="0.00" departDelay="0.00" arrival="630.00" arrivalLane="NE_0" arrivalPos="89.60" arrivalSpeed="12.56" duration="30.00" routeLength="194.90" waitingTime="4.00" waitingCount="1" stopTime="0.00" timeLoss="14.00" rerouteNo="0" devices="tripinfo_flow_we.50 routing_flow_we.50" vType="car" speedFactor="0.91" vaporized=""/>
    <tripinfo id="flow_we.51" depart="612.00" departLane="WN_0" departPos="5.10" departSpeed="0.00" departDelay="0.00" arrival="632.00" arrivalLane="NE_0" arrivalPos="89.60" arrivalSpeed="13.49" duration="20.00" routeLength="194.90" waitingTime="0.00" waitingCount="0" stopTime="0.00" timeLoss="5.61" rerouteNo="0" devices="tripinfo_flow_we.51 routing_flow_we.51" vType="car" speedFactor="1.04" vaporized=""/>