<?xml version="1.0" encoding="UTF-8"?>

<!-- generated on 2025-09-20 15:46:03 by Eclipse SUMO sumo Version 1.24.0
<sumoConfiguration xmlns:xsi="http://www.w3.org/2001/XMLSchema-instance" xsi:noNamespaceSchemaLocation="http://sumo.dlr.de/xsd/sumoConfiguration.xsd">

    <input>
        <net-file value="simulation/intersection.net.xml"/>
        <route-files value="simulation/intersection.rou.xml"/>
    </input>

    <output>
        <summary-output value="outputs/intersection_before_ai_summary.xml"/>
        <tripinfo-output value="outputs/intersection_before_ai_tripinfo.xml"/>
    </output>

    <time>
        <begin value="0"/>
    </time>

    <traci_server>
        <remote-port value="8813"/>
    </traci_server>

    <gui_only>
        <start value="true"/>
    </gui_only>

</sumoConfiguration>
-->

<tripinfos xmlns:xsi="http://www.w3.org/2001/XMLSchema-instance" xsi:noNamespaceSchemaLocation="http://sumo.dlr.de/xsd/tripinfo_file.xsd">
    <tripinfo id="flow_ns.0" depart="0.00" departLane="NN_0" departPos="5.10" departSpeed="0.00" departDelay="0.00" arrival="18.00" arrivalLane="NS_0" arrivalPos="89.60" arrivalSpeed="13.70" duration="18.00" routeLength="194.90" waitingTime="0.00" waitingCount="0" stopTime="0.00" timeLoss="3.65" rerouteNo="0" devices="tripinfo_flow_ns.0 routing_flow_ns.0" vType="car" speedFactor="1.01" vaporized=""/>
    <tripinfo id="flow_we.1" depart="3.00" departLane="WN_0" departPos="5.10" departSpeed="0.00" departDelay="0.00" arrival="22.00" arrivalLane="NE_1" arrivalPos="89.60" arrivalSpeed="13.11" duration="19.00" routeLength="194.90" waitingTime="0.00" waitingCount="0" stopTime="0.00" timeLoss="4.95" rerouteNo="0" devices="tripinfo_flow_we.1 routing_flow_we.1" vType="car" speedFactor="1.03" vaporized=""/>
    <tripinfo id="flow_we.0" depart="0.00" departLane="WN_0" departPos="5.10" departSpeed="0.00" departDelay="0.00" arrival="23.00" arrivalLane="NE_0" arrivalPos="89.60" arrivalSpeed="14.57" duration="23.00" routeLength="194.90" waitingTime="0.00" waitingCount="0" stopTime="0.00" timeLoss="9.50" rerouteNo="0" devices="tripinfo_flow_we.0 routing_flow_we.0" vType="car" speedFactor="1.06" vaporized=""/>
    <tripinfo id="flow_ew.0" depart="0.00" departLane="EN_0" departPos="5.10" departSpeed="0.00" departDelay="0.00" arrival="24.00" arrivalLane="NW_0" arrivalPos="89.60" arrivalSpeed="11.96" duration="24.00" routeLength="194.90" waitingTime="1.00" waitingCount="1" stopTime="0.00" timeLoss="8.72" rerouteNo="0" devices="tripinfo_flow_ew.0 routing_flow_ew.0" vType="car" speedFactor="0.94" vaporized=""/>
    <tripinfo id="flow_ew.1" depart="4.00" departLane="EN_0" departPos="5.10" departSpeed="0.00" departDelay="0.40" arrival="25.00" arrivalLane="NW_1" arrivalPos="89.60" arrivalSpeed="11.31" duration="21.00" routeLength="194.90" waitingTime="0.00" waitingCount="0" stopTime="0.00" timeLoss="3.27" rerouteNo="0" devices="tripinfo_flow_ew.1 routing_flow_ew.1" vType="car" speedFactor="0.83" vaporized=""/>
    <tripinfo id="flow_we.2" depart="6.00" departLane="WN_0" departPos="5.10" departSpeed="0.00" departDelay="0.00" arrival="25.00" arrivalLane="NE_0" arrivalPos="89.60" arrivalSpeed="13.44" duration="19.00" routeLength="194.90" waitingTime="0.00" waitingCount="0" stopTime="0.00" timeLoss="5.21" rerouteNo="0" devices="tripinfo_flow_we.2 routing_flow_we.2" vType="car" speedFactor="1.05" vaporized=""/>
    <tripinfo id="flow_ew.2" depart="8.00" departLane="EN_0" departPos="5.10" departSpeed="0.00" departDelay="0.80" arrival="28.00" arrivalLane="NW_0" arrivalPos="89.60" arrivalSpeed="12.04" duration="20.00" routeLength="194.90" waitingTime="0.00" waitingCount="0" stopTime="0.00" timeLoss="3.25" rerouteNo="0" devices="tripinfo_flow_ew.2 routing_flow_ew.2" vType="car" speedFactor="0.89" vaporized=""/>
    <tripinfo id="flow_we.3" depart="9.00" departLane="WN_0" departPos="5.10" departSpeed="0.00" departDelay="0.00" arrival="28.00" arrivalLane="NE_0" arrivalPos="89.60" arrivalSpeed="12.53" duration="19.00" routeLength="194.90" waitingTime="0.00" waitingCount="0" stopTime="0.00" timeLoss="3.41" rerouteNo="0" devices="tripinfo_flow_we.3 routing_flow_we.3" vType="car" speedFactor="0.94" vaporized=""/>
    <tripinfo id="flow_sn.0" depart="0.00" departLane="SN_0" departPos="5.10" departSpeed="0.00" departDelay="0.00" arrival="29.00" arrivalLane="NN_1" arrivalPos="89.60" arrivalSpeed="14.47" duration="29.00" routeLength="289.17" waitingTime="0.00" waitingCount="0" stopTime="0.00" timeLoss="8.47" rerouteNo="1" devices="tripinfo_flow_sn.0 routing_flow_sn.0" vType="car" speedFactor="1.08" vaporized=""/>
    <tripinfo id="flow_ew.3" depart="11.00" departLane="EN_0" departPos="5.10" departSpeed="0.00" departDelay="0.20" arrival="29.00" arrivalLane="NW_0" arrivalPos="89.60" arrivalSpeed="15.08" duration="18.00" routeLength="194.90" waitingTime="0.00" waitingCount="0" stopTime="0.00" timeLoss="4.85" rerouteNo="0" devices="tripinfo_flow_ew.3 routing_flow_ew.3" vType="car" speedFactor="1.09" vaporized=""/>
    <tripinfo id="flow_we.4" depart="12.00" departLane="WN_0" departPos="5.10" departSpeed="0.00" departDelay="0.00" arrival="30.00" arrivalLane="NE_0" arrivalPos="89.60" arrivalSpeed="13.34" duration="18.00" routeLength="194.90" waitingTime="0.00" waitingCount="0" stopTime="0.00" timeLoss="3.60" rerouteNo="0" devices="tripinfo_flow_we.4 routing_flow_we.4" vType="car" speedFactor="1.03" vaporized=""/>
    <tripinfo id="flow_we.5" depart="15.00" departLane="WN_0" departPos="5.10" departSpeed="0.00" departDelay="0.00" arrival="32.00" arrivalLane="NE_0" arrivalPos="89.60" arrivalSpeed="14.39" duration="17.00" routeLength="194.90" waitingTime="0.00" waitingCount="0" stopTime="0.00" timeLoss="4.02" rerouteNo="0" devices="tripinfo_flow_we.5 routing_flow_we.5" vType="car" speedFactor="1.12" vaporized=""/>
    <tripinfo id="flow_ew.4" depart="15.00" departLane="EN_0" departPos="5.10" departSpeed="0.00" departDelay="0.60" arrival="33.00" arrivalLane="NW_0" arrivalPos="89.60" arrivalSpeed="13.47" duration="18.00" routeLength="194.90" waitingTime="0.00" waitingCount="0" stopTime="0.00" timeLoss="3.31" rerouteNo="0" devices="tripinfo_flow_ew.4 routing_flow_ew.4" vType="car" speedFactor="0.99" vaporized=""/>
    <tripinfo id="flow_we.6" depart="18.00" departLane="WN_0" departPos="5.10" departSpeed="0.00" departDelay="0.00" arrival="37.00" arrivalLane="NE_0" arrivalPos="89.60" arrivalSpeed="12.60" duration="19.00" routeLength="194.90" waitingTime="0.00" waitingCount="0" stopTime="0.00" timeLoss="3.84" rerouteNo="0" devices="tripinfo_flow_we.6 routing_flow_we.6" vType="car" speedFactor="0.93" vaporized=""/>
    <tripinfo id="flow_ew.5" depart="18.00" departLane="EN_0" departPos="5.10" departSpeed="0.00" departDelay="0.00" arrival="38.00" arrivalLane="NW_0" arrivalPos="89.60" arrivalSpeed="11.74" duration="20.00" routeLength="194.90" waitingTime="0.00" waitingCount="0" stopTime="0.00" timeLoss="3.50" rerouteNo="0" devices="tripinfo_flow_ew.5 routing_flow_ew.5" vType="car" speedFactor="0.88" vaporized=""/>
    <tripinfo id="flow_we.7" depart="21.00" departLane="WN_0" departPos="5.10" departSpeed="0.00" departDelay="0.00" arrival="40.00" arrivalLane="NE_0" arrivalPos="89.60" arrivalSpeed="12.31" duration="19.00" routeLength="194.90" waitingTime="0.00" waitingCount="0" stopTime="0.00" timeLoss="3.16" rerouteNo="0" devices="tripinfo_flow_we.7 routing_flow_we.7" vType="car" speedFactor="0.94" vaporized=""/>
    <tripinfo id="flow_ew.6" depart="22.00" departLane="EN_0" departPos="5.10" departSpeed="0.00" departDelay="0.40" arrival="40.00" arrivalLane="NW_0" arrivalPos="89.60" arrivalSpeed="16.00" duration="18.00" routeLength="194.90" waitingTime="0.00" waitingCount="0" stopTime="0.00" timeLoss="5.07" rerouteNo="0" devices="tripinfo_flow_ew.6 routing_flow_ew.6" vType="car" speedFactor="1.16" vaporized=""/>
    <tripinfo id="flow_we.8" depart="24.00" departLane="WN_0" departPos="5.10" departSpeed="0.00" departDelay="0.00" arrival="42.00" arrivalLane="NE_0" arrivalPos="89.60" arrivalSpeed="13.93" duration="18.00" routeLength="194.90" waitingTime="0.00" waitingCount="0" stopTime="0.00" timeLoss="3.79" rerouteNo="0" devices="tripinfo_flow_we.8 routing_flow_we.8" vType="car" speedFactor="1.02" vaporized=""/>
    <tripinfo id="flow_ew.7" depart="26.00" departLane="EN_0" departPos="5.10" departSpeed="0.00" departDelay="0.80" arrival="45.00" arrivalLane="NW_0" arrivalPos="89.60" arrivalSpeed="13.20" duration="19.00" routeLength="194.90" waitingTime="0.00" waitingCount="0" stopTime="0.00" timeLoss="3.74" rerouteNo="0" devices="tripinfo_flow_ew.7 routing_flow_ew.7" vType="car" speedFactor="0.97" vaporized=""/>
    <tripinfo id="flow_we.9" depart="27.00" departLane="WN_0" departPos="5.10" departSpeed="0.00" departDelay="0.00" arrival="47.00" arrivalLane="NE_0" arrivalPos="89.60" arrivalSpeed="12.16" duration="20.00" routeLength="194.90" waitingTime="0.00" waitingCount="0" stopTime="0.00" timeLoss="3.42" rerouteNo="0" devices="tripinfo_flow_we.9 routing_flow_we.9" vType="car" speedFactor="0.89" vaporized=""/>
    <tripinfo id="flow_ew.8" depart="29.00" departLane="EN_0" departPos="5.10" departSpeed="0.00" departDelay="0.20" arrival="49.00" arrivalLane="NW_0" arrivalPos="89.60" arrivalSpeed="11.22" duration="20.00" routeLength="194.90" waitingTime="0.00" waitingCount="0" stopTime="0.00" timeLoss="3.50" rerouteNo="0" devices="tripinfo_flow_ew.8 routing_flow_ew.8" vType="car" speedFactor="0.87" vaporized=""/>
    <tripinfo id="flow_we.10" depart="30.00" departLane="WN_0" departPos="5.10" departSpeed="0.00" departDelay="0.00" arrival="49.00" arrivalLane="NE_0" arrivalPos="89.60" arrivalSpeed="11.71" duration="19.00" routeLength="194.90" waitingTime="0.00" waitingCount="0" stopTime="0.00" timeLoss="3.12" rerouteNo="0" devices="tripinfo_flow_we.10 routing_flow_we.10" vType="car" speedFactor="0.92" vaporized=""/>
    <tripinfo id="flow_ew.9" depart="33.00" departLane="EN_0" departPos="5.10" departSpeed="0.00" departDelay="0.60" arrival="51.00" arrivalLane="NW_0" arrivalPos="89.60" arrivalSpeed="15.00" duration="18.00" routeLength="194.90" waitingTime="0.00" waitingCount="0" stopTime="0.00" timeLoss="4.78" rerouteNo="0" devices="tripinfo_flow_ew.9 routing_flow_ew.9" vType="car" speedFactor="1.13" vaporized=""/>
    <tripinfo id="flow_we.11" depart="33.00" departLane="WN_0" departPos="5.10" departSpeed="0.00" departDelay="0.00" arrival="52.00" arrivalLane="NE_0" arrivalPos="89.60" arrivalSpeed="12.90" duration="19.00" routeLength="194.90" waitingTime="0.00" waitingCount="0" stopTime="0.00" timeLoss="4.02" rerouteNo="0" devices="tripinfo_flow_we.11 routing_flow_we.11" vType="car" speedFactor="0.95" vaporized=""/>
    <tripinfo id="flow_ew.10" depart="36.00" departLane="EN_0" departPos="5.10" departSpeed="0.00" departDelay="0.00" arrival="52.00" arrivalLane="NW_0" arrivalPos="89.60" arrivalSpeed="15.20" duration="16.00" routeLength="194.90" waitingTime="0.00" waitingCount="0" stopTime="0.00" timeLoss="4.03" rerouteNo="0" devices="tripinfo_flow_ew.10 routing_flow_ew.10" vType="car" speedFactor="1.18" vaporized=""/>
    <tripinfo id="flow_we.12" depart="36.00" departLane="WN_0" departPos="5.10" departSpeed="0.00" departDelay="0.00" arrival="55.00" arrivalLane="NE_0" arrivalPos="89.60" arrivalSpeed="12.28" duration="19.00" routeLength="194.90" waitingTime="0.00" waitingCount="0" stopTime="0.00" timeLoss="3.54" rerouteNo="0" devices="tripinfo_flow_we.12 routing_flow_we.12" vType="car" speedFactor="0.93" vaporized=""/>
    <tripinfo id="flow_we.13" depart="39.00" departLane="WN_0" departPos="5.10" departSpeed="0.00" departDelay="0.00" arrival="57.00" arrivalLane="NE_0" arrivalPos="89.60" arrivalSpeed="15.39" duration="18.00" routeLength="194.90" waitingTime="0.00" waitingCount="0" stopTime="0.00" timeLoss="5.36" rerouteNo="0" devices="tripinfo_flow_we.13 routing_flow_we.13" vType="car" speedFactor="1.17" vaporized=""/>
    <tripinfo id="flow_ew.11" depart="40.00" departLane="EN_0" departPos="5.10" departSpeed="0.00" departDelay="0.40" arrival="58.00" arrivalLane="NW_0" arrivalPos="89.60" arrivalSpeed="12.97" duration="18.00" routeLength="194.90" waitingTime="0.00" waitingCount="0" stopTime="0.00" timeLoss="3.44" rerouteNo="0" devices="tripinfo_flow_ew.11 routing_flow_ew.11" vType="car" speedFactor="0.99" vaporized=""/>
    <tripinfo id="flow_we.14" depart="42.00" departLane="WN_0" departPos="5.10" departSpeed="0.00" departDelay="0.00" arrival="60.00" arrivalLane="NE_0" arrivalPos="89.60" arrivalSpeed="12.98" duration="18.00" routeLength="194.90" waitingTime="0.00" waitingCount="0" stopTime="0.00" timeLoss="3.99" rerouteNo="0" devices="tripinfo_flow_we.14 routing_flow_we.14" vType="car" speedFactor="1.02" vaporized=""/>
    <tripinfo id="flow_ew.12" depart="44.00" departLane="EN_0" departPos="5.10" departSpeed="0.00" departDelay="0.80" arrival="62.00" arrivalLane="NW_0" arrivalPos="89.60" arrivalSpeed="13.12" duration="18.00" routeLength="194.90" waitingTime="0.00" waitingCount="0" stopTime="0.00" timeLoss="3.43" rerouteNo="0" devices="tripinfo_flow_ew.12 routing_flow_ew.12" vType="car" speedFactor="0.97" vaporized=""/>
    <tripinfo id="flow_we.15" depart="45.00" departLane="WN_0" departPos="5.10" departSpeed="0.00" departDelay="0.00" arrival="62.00" arrivalLane="NE_0" arrivalPos="89.60" arrivalSpeed="15.52" duration="17.00" routeLength="194.90" waitingTime="0.00" waitingCount="0" stopTime="0.00" timeLoss="4.48" rerouteNo="0" devices="tripinfo_flow_we.15 routing_flow_we.15" vType="car" speedFactor="1.18" vaporized=""/>
    <tripinfo id="flow_ew.13" depart="47.00" departLane="EN_0" departPos="5.10" departSpeed="0.00" departDelay="0.20" arrival="66.00" arrivalLane="NW_0" arrivalPos="89.60" arrivalSpeed="11.53" duration="19.00" routeLength="194.90" waitingTime="0.00" waitingCount="0" stopTime="0.00" timeLoss="3.37" rerouteNo="0" devices="tripinfo_flow_ew.13 routing_flow_ew.13" vType="car" speedFactor="0.90" vaporized=""/>
    <tripinfo id="flow_we.16" depart="48.00" departLane="WN_0" departPos="5.10" departSpeed="0.00" departDelay="0.00" arrival="66.00" arrivalLane="NE_0" arrivalPos="89.60" arrivalSpeed="13.50" duration="18.00" routeLength="194.90" waitingTime="0.00" waitingCount="0" stopTime="0.00" timeLoss="3.53" rerouteNo="0" devices="tripinfo_flow_we.16 routing_flow_we.16" vType="car" speedFactor="1.03" vaporized=""/>
    <tripinfo id="flow_we.17" depart="51.00" departLane="WN_0" departPos="5.10" departSpeed="0.00" departDelay="0.00" arrival="68.00" arrivalLane="NE_0" arrivalPos="89.60" arrivalSpeed="14.16" duration="17.00" routeLength="194.90" waitingTime="0.00" waitingCount="0" stopTime="0.00" timeLoss="3.51" rerouteNo="0" devices="tripinfo_flow_we.17 routing_flow_we.17" vType="car" speedFactor="1.09" vaporized=""/>
    <tripinfo id="flow_ew.14" depart="51.00" departLane="EN_0" departPos="5.10" departSpeed="0.00" departDelay="0.60" arrival="69.00" arrivalLane="NW_0" arrivalPos="89.60" arrivalSpeed="13.73" duration="18.00" routeLength="194.90" waitingTime="0.00" waitingCount="0" stopTime="0.00" timeLoss="3.60" rerouteNo="0" devices="tripinfo_flow_ew.14 routing_flow_ew.14" vType="car" speedFactor="1.04" vaporized=""/>
    <tripinfo id="flow_we.18" depart="54.00" departLane="WN_0" departPos="5.10" departSpeed="0.00" departDelay="0.00" arrival="71.00" arrivalLane="NE_0" arrivalPos="89.60" arrivalSpeed="13.30" duration="17.00" routeLength="194.90" waitingTime="0.00" waitingCount="0" stopTime="0.00" timeLoss="3.55" rerouteNo="0" devices="tripinfo_flow_we.18 routing_flow_we.18" vType="car" speedFactor="1.04" vaporized=""/>
    <tripinfo id="flow_ew.15" depart="54.00" departLane="EN_0" departPos="5.10" departSpeed="0.00" departDelay="0.00" arrival="71.00" arrivalLane="NW_0" arrivalPos="89.60" arrivalSpeed="14.82" duration="17.00" routeLength="194.90" waitingTime="0.00" waitingCount="0" stopTime="0.00" timeLoss="3.80" rerouteNo="0" devices="tripinfo_flow_ew.15 routing_flow_ew.15" vType="car" speedFactor="1.09" vaporized=""/>
    <tripinfo id="flow_we.19" depart="57.00" departLane="WN_0" departPos="5.10" departSpeed="0.00" departDelay="0.00" arrival="77.00" arrivalLane="NE_0" arrivalPos="89.60" arrivalSpeed="11.42" duration="20.00" routeLength="194.90" waitingTime="0.00" waitingCount="0" stopTime="0.00" timeLoss="3.63" rerouteNo="0" devices="tripinfo_flow_we.19 routing_flow_we.19" vType="car" speedFactor="0.90" vaporized=""/>
    <tripinfo id="flow_ew.16" depart="58.00" departLane="EN_0" departPos="5.10" departSpeed="0.00" departDelay="0.40" arrival="78.00" arrivalLane="NW_0" arrivalPos="89.60" arrivalSpeed="10.91" duration="20.00" routeLength="194.90" waitingTime="0.00" waitingCount="0" stopTime="0.00" timeLoss="3.36" rerouteNo="0" devices="tripinfo_flow_ew.16 routing_flow_ew.16" vType="car" speedFactor="0.88" vaporized=""/>
    <tripinfo id="flow_we.20" depart="60.00" departLane="WN_0" departPos="5.10" departSpeed="0.00" departDelay="0.00" arrival="80.00" arrivalLane="NE_0" arrivalPos="89.60" arrivalSpeed="10.80" duration="20.00" routeLength="194.90" waitingTime="0.00" waitingCount="0" stopTime="0.00" timeLoss="3.11" rerouteNo="0" devices="tripinfo_flow_we.20 routing_flow_we.20" vType="car" speedFactor="0.85" vaporized=""/>
    <tripinfo id="flow_ew.17" depart="62.00" departLane="EN_0" departPos="5.10" departSpeed="0.00" departDelay="0.80" arrival="80.00" arrivalLane="NW_0" arrivalPos="89.60" arrivalSpeed="16.05" duration="18.00" routeLength="194.90" waitingTime="0.00" waitingCount="0" stopTime="0.00" timeLoss="5.08" rerouteNo="0" devices="tripinfo_flow_ew.17 routing_flow_ew.17" vType="car" speedFactor="1.17" vaporized=""/>
    <tripinfo id="flow_we.21" depart="63.00" departLane="WN_0" departPos="5.10" departSpeed="0.00" departDelay="0.00" arrival="82.00" arrivalLane="NE_0" arrivalPos="89.60" arrivalSpeed="13.36" duration="19.00" routeLength="194.90" waitingTime="0.00" waitingCount="0" stopTime="0.00" timeLoss="4.48" rerouteNo="0" devices="tripinfo_flow_we.21 routing_flow_we.21" vType="car" speedFactor="1.02" vaporized=""/>
    <tripinfo id="flow_ew.18" depart="65.00" departLane="EN_0" departPos="5.10" departSpeed="0.00" departDelay="0.20" arrival="83.00" arrivalLane="NW_0" arrivalPos="89.60" arrivalSpeed="13.17" duration="18.00" routeLength="194.90" waitingTime="0.00" waitingCount="0" stopTime="0.00" timeLoss="3.41" rerouteNo="0" devices="tripinfo_flow_ew.18 routing_flow_ew.18" vType="car" speedFactor="1.00" vaporized=""/>
    <tripinfo id="flow_we.22" depart="66.00" departLane="WN_0" departPos="5.10" departSpeed="0.00" departDelay="0.00" arrival="84.00" arrivalLane="NE_0" arrivalPos="89.60" arrivalSpeed="13.38" duration="18.00" routeLength="194.90" waitingTime="0.00" waitingCount="0" stopTime="0.00" timeLoss="3.76" rerouteNo="0" devices="tripinfo_flow_we.22 routing_flow_we.22" vType="car" speedFactor="1.00" vaporized=""/>
    <tripinfo id="flow_ew.19" depart="69.00" departLane="EN_0" departPos="5.10" departSpeed="0.00" departDelay="0.60" arrival="86.00" arrivalLane="NW_0" arrivalPos="89.60" arrivalSpeed="15.00" duration="17.00" routeLength="194.90" waitingTime="0.00" waitingCount="0" stopTime="0.00" timeLoss="4.18" rerouteNo="0" devices="tripinfo_flow_ew.19 routing_flow_ew.19" vType="car" speedFactor="1.14" vaporized=""/>
    <tripinfo id="flow_we.23" depart="69.00" departLane="WN_0" departPos="5.10" departSpeed="0.00" departDelay="0.00" arrival="88.00" arrivalLane="NE_0" arrivalPos="89.60" arrivalSpeed="12.40" duration="19.00" routeLength="194.90" waitingTime="0.00" waitingCount="0" stopTime="0.00" timeLoss="3.39" rerouteNo="0" devices="tripinfo_flow_we.23 routing_flow_we.23" vType="car" speedFactor="0.90" vaporized=""/>
    <tripinfo id="flow_we.24" depart="72.00" departLane="WN_0" departPos="5.10" departSpeed="0.00" departDelay="0.00" arrival="90.00" arrivalLane="NE_0" arrivalPos="89.60" arrivalSpeed="13.58" duration="18.00" routeLength="194.90" waitingTime="0.00" waitingCount="0" stopTime="0.00" timeLoss="3.98" rerouteNo="0" devices="tripinfo_flow_we.24 routing_flow_we.24" vType="car" speedFactor="1.02" vaporized=""/>
    <tripinfo id="flow_ew.20" depart="72.00" departLane="EN_0" departPos="5.10" departSpeed="0.00" departDelay="0.00" arrival="90.00" arrivalLane="NW_0" arrivalPos="89.60" arrivalSpeed="12.29" duration="18.00" routeLength="194.90" waitingTime="0.00" waitingCount="0" stopTime="0.00" timeLoss="3.46" rerouteNo="0" devices="tripinfo_flow_ew.20 routing_flow_ew.20" vType="car" speedFactor="0.97" vaporized=""/>
    <tripinfo id="flow_we.25" depart="75.00" departLane="WN_0" departPos="5.10" departSpeed="0.00" departDelay="0.00" arrival="93.00" arrivalLane="NE_0" arrivalPos="89.60" arrivalSpeed="13.36" duration="18.00" routeLength="194.90" waitingTime="0.00" waitingCount="0" stopTime="0.00" timeLoss="3.55" rerouteNo="0" devices="tripinfo_flow_we.25 routing_flow_we.25" vType="car" speedFactor="1.02" vaporized=""/>
    <tripinfo id="flow_ew.21" depart="76.00" departLane="EN_0" departPos="5.10" departSpeed="0.00" departDelay="0.40" arrival="94.00" arrivalLane="NW_0" arrivalPos="89.60" arrivalSpeed="13.49" duration="18.00" routeLength="194.90" waitingTime="0.00" waitingCount="0" stopTime="0.00" timeLoss="2.91" rerouteNo="0" devices="tripinfo_flow_ew.21 routing_flow_ew.21" vType="car" speedFactor="0.99" vaporized=""/>
    <tripinfo id="flow_we.26" depart="78.00" departLane="WN_0" departPos="5.10" departSpeed="0.00" departDelay="0.00" arrival="97.00" arrivalLane="NE_0" arrivalPos="89.60" arrivalSpeed="12.11" duration="19.00" routeLength="194.90" waitingTime="0.00" waitingCount="0" stopTime="0.00" timeLoss="3.61" rerouteNo="0" devices="tripinfo_flow_we.26 routing_flow_we.26" vType="car" speedFactor="0.94" vaporized=""/>
    <tripinfo id="flow_ew.22" depart="80.00" departLane="EN_0" departPos="5.10" departSpeed="0.00" departDelay="0.80" arrival="100.00" arrivalLane="NW_0" arrivalPos="89.60" arrivalSpeed="11.60" duration="20.00" routeLength="194.90" waitingTime="0.00" waitingCount="0" stopTime="0.00" timeLoss="3.36" rerouteNo="0" devices="tripinfo_flow_ew.22 routing_flow_ew.22" vType="car" speedFactor="0.88" vaporized=""/>
    <tripinfo id="flow_we.27" depart="81.00" departLane="WN_0" departPos="5.10" departSpeed="0.00" departDelay="0.00" arrival="101.00" arrivalLane="NE_0" arrivalPos="89.60" arrivalSpeed="11.91" duration="20.00" routeLength="194.90" waitingTime="0.00" waitingCount="0" stopTime="0.00" timeLoss="3.62" rerouteNo="0" devices="tripinfo_flow_we.27 routing_flow_we.27" vType="car" speedFactor="0.91" vaporized=""/>
    <tripinfo id="flow_ew.23" depart="83.00" departLane="EN_0" departPos="5.10" departSpeed="0.00" departDelay="0.20" arrival="101.00" arrivalLane="NW_0" arrivalPos="89.60" arrivalSpeed="12.89" duration="18.00" routeLength="194.90" waitingTime="0.00" waitingCount="0" stopTime="0.00" timeLoss="4.43" rerouteNo="0" devices="tripinfo_flow_ew.23 routing_flow_ew.23" vType="car" speedFactor="1.04" vaporized=""/>
    <tripinfo id="flow_we.28" depart="84.00" departLane="WN_0" departPos="5.10" departSpeed="0.00" departDelay="0.00" arrival="102.00" arrivalLane="NE_0" arrivalPos="89.60" arrivalSpeed="13.51" duration="18.00" routeLength="194.90" waitingTime="0.00" waitingCount="0" stopTime="0.00" timeLoss="4.05" rerouteNo="0" devices="tripinfo_flow_we.28 routing_flow_we.28" vType="car" speedFactor="1.02" vaporized=""/>
    <tripinfo id="flow_we.29" depart="87.00" departLane="WN_0" departPos="5.10" departSpeed="0.00" departDelay="0.00" arrival="105.00" arrivalLane="NE_0" arrivalPos="89.60" arrivalSpeed="12.98" duration="18.00" routeLength="194.90" waitingTime="0.00" waitingCount="0" stopTime="0.00" timeLoss="3.21" rerouteNo="0" devices="tripinfo_flow_we.29 routing_flow_we.29" vType="car" speedFactor="0.97" vaporized=""/>
    <tripinfo id="flow_ew.24" depart="87.00" departLane="EN_0" departPos="5.10" departSpeed="0.00" departDelay="0.60" arrival="106.00" arrivalLane="NW_0" arrivalPos="89.60" arrivalSpeed="11.83" duration="19.00" routeLength="194.90" waitingTime="0.00" waitingCount="0" stopTime="0.00" timeLoss="3.85" rerouteNo="0" devices="tripinfo_flow_ew.24 routing_flow_ew.24" vType="car" speedFactor="0.94" vaporized=""/>
    <tripinfo id="flow_we.30" depart="90.00" departLane="WN_0" departPos="5.10" departSpeed="0.00" departDelay="0.00" arrival="108.00" arrivalLane="NE_0" arrivalPos="89.60" arrivalSpeed="14.13" duration="18.00" routeLength="194.90" waitingTime="0.00" waitingCount="0" stopTime="0.00" timeLoss="3.80" rerouteNo="0" devices="tripinfo_flow_we.30 routing_flow_we.30" vType="car" speedFactor="1.06" vaporized=""/>
    <tripinfo id="flow_ew.25" depart="90.00" departLane="EN_0" departPos="5.10" departSpeed="0.00" departDelay="0.00" arrival="108.00" arrivalLane="NW_0" arrivalPos="89.60" arrivalSpeed="12.88" duration="18.00" routeLength="194.90" waitingTime="0.00" waitingCount="0" stopTime="0.00" timeLoss="3.00" rerouteNo="0" devices="tripinfo_flow_ew.25 routing_flow_ew.25" vType="car" speedFactor="0.96" vaporized=""/>
    <tripinfo id="flow_we.31" depart="93.00" departLane="WN_0" departPos="5.10" departSpeed="0.00" departDelay="0.00" arrival="111.00" arrivalLane="NE_0" arrivalPos="89.60" arrivalSpeed="13.19" duration="18.00" routeLength="194.90" waitingTime="0.00" waitingCount="0" stopTime="0.00" timeLoss="4.03" rerouteNo="0" devices="tripinfo_flow_we.31 routing_flow_we.31" vType="car" speedFactor="1.03" vaporized=""/>
    <tripinfo id="flow_ew.26" depart="94.00" departLane="EN_0" departPos="5.10" departSpeed="0.00" departDelay="0.40" arrival="112.00" arrivalLane="NW_0" arrivalPos="89.60" arrivalSpeed="12.38" duration="18.00" routeLength="194.90" waitingTime="0.00" waitingCount="0" stopTime="0.00" timeLoss="3.31" rerouteNo="0" devices="tripinfo_flow_ew.26 routing_flow_ew.26" vType="car" speedFactor="0.98" vaporized=""/>
    <tripinfo id="flow_we.32" depart="96.00" departLane="WN_0" departPos="5.10" departSpeed="0.00" departDelay="0.00" arrival="114.00" arrivalLane="NE_0" arrivalPos="89.60" arrivalSpeed="13.95" duration="18.00" routeLength="194.90" waitingTime="0.00" waitingCount="0" stopTime="0.00" timeLoss="3.50" rerouteNo="0" devices="tripinfo_flow_we.32 routing_flow_we.32" vType="car" speedFactor="1.01" vaporized=""/>
    <tripinfo id="flow_ew.27" depart="98.00" departLane="EN_0" departPos="5.10" departSpeed="0.00" departDelay="0.80" arrival="115.00" arrivalLane="NW_0" arrivalPos="89.60" arrivalSpeed="13.85" duration="17.00" routeLength="194.90" waitingTime="0.00" waitingCount="0" stopTime="0.00" timeLoss="3.40" rerouteNo="0" devices="tripinfo_flow_ew.27 routing_flow_ew.27" vType="car" speedFactor="1.03" vaporized=""/>
    <tripinfo id="flow_we.33" depart="99.00" departLane="WN_0" departPos="5.10" departSpeed="0.00" departDelay="0.00" arrival="117.00" arrivalLane="NE_0" arrivalPos="89.60" arrivalSpeed="13.36" duration="18.00" routeLength="194.90" waitingTime="0.00" waitingCount="0" stopTime="0.00" timeLoss="3.70" rerouteNo="0" devices="tripinfo_flow_we.33 routing_flow_we.33" vType="car" speedFactor="1.00" vaporized=""/>
    <tripinfo id="flow_we.34" depart="102.00" departLane="WN_0" departPos="5.10" departSpeed="0.00" departDelay="0.00" arrival="119.00" arrivalLane="NE_0" arrivalPos="89.60" arrivalSpeed="14.79" duration="17.00" routeLength="194.90" waitingTime="0.00" waitingCount="0" stopTime="0.00" timeLoss="4.15" rerouteNo="0" devices="tripinfo_flow_we.34 routing_flow_we.34" vType="car" speedFactor="1.15" vaporized=""/>
    <tripinfo id="flow_ew.28" depart="101.00" departLane="EN_0" departPos="5.10" departSpeed="0.00" departDelay="0.20" arrival="120.00" arrivalLane="NW_0" arrivalPos="89.60" arrivalSpeed="12.27" duration="19.00" routeLength="194.90" waitingTime="0.00" waitingCount="0" stopTime="0.00" timeLoss="3.73" rerouteNo="0" devices="tripinfo_flow_ew.28 routing_flow_ew.28" vType="car" speedFactor="0.97" vaporized=""/>
    <tripinfo id="flow_we.35" depart="105.00" departLane="WN_0" departPos="5.10" departSpeed="0.00" departDelay="0.00" arrival="123.00" arrivalLane="NE_0" arrivalPos="89.60" arrivalSpeed="13.41" duration="18.00" routeLength="194.90" waitingTime="0.00" waitingCount="0" stopTime="0.00" timeLoss="3.48" rerouteNo="0" devices="tripinfo_flow_we.35 routing_flow_we.35" vType="car" speedFactor="0.98" vaporized=""/>
    <tripinfo id="flow_ew.29" depart="105.00" departLane="EN_0" departPos="5.10" departSpeed="0.00" departDelay="0.60" arrival="123.00" arrivalLane="NW_0" arrivalPos="89.60" arrivalSpeed="13.38" duration="18.00" routeLength="194.90" waitingTime="0.00" waitingCount="0" stopTime="0.00" timeLoss="3.69" rerouteNo="0" devices="tripinfo_flow_ew.29 routing_flow_ew.29" vType="car" speedFactor="1.00" vaporized=""/>
    <tripinfo id="flow_we.36" depart="108.00" departLane="WN_0" departPos="5.10" departSpeed="0.00" departDelay="0.00" arrival="126.00" arrivalLane="NE_0" arrivalPos="89.60" arrivalSpeed="13.56" duration="18.00" routeLength="194.90" waitingTime="0.00" waitingCount="0" stopTime="0.00" timeLoss="3.77" rerouteNo="0" devices="tripinfo_flow_we.36 routing_flow_we.36" vType="car" speedFactor="1.04" vaporized=""/>
    <tripinfo id="flow_ew.30" depart="108.00" departLane="EN_0" departPos="5.10" departSpeed="0.00" departDelay="0.00" arrival="126.00" arrivalLane="NW_0" arrivalPos="89.60" arrivalSpeed="13.95" duration="18.00" routeLength="194.90" waitingTime="0.00" waitingCount="0" stopTime="0.00" timeLoss="3.94" rerouteNo="0" devices="tripinfo_flow_ew.30 routing_flow_ew.30" vType="car" speedFactor="1.01" vaporized=""/>
    <tripinfo id="flow_we.37" depart="111.00" departLane="WN_0" departPos="5.10" departSpeed="0.00" departDelay="0.00" arrival="131.00" arrivalLane="NE_0" arrivalPos="89.60" arrivalSpeed="11.43" duration="20.00" routeLength="194.90" waitingTime="0.00" waitingCount="0" stopTime="0.00" timeLoss="3.57" rerouteNo="0" devices="tripinfo_flow_we.37 routing_flow_we.37" vType="car" speedFactor="0.89" vaporized=""/>