<?xml version="1.0" encoding="UTF-8"?>

<!-- generated on 2025-09-20 17:52:05 by Eclipse SUMO GUI Version 1.24.0
<sumoConfiguration xmlns:xsi="http://www.w3.org/2001/XMLSchema-instance" xsi:noNamespaceSchemaLocation="http://sumo.dlr.de/xsd/sumoConfiguration.xsd">

    <input>
        <net-file value="simulation/intersection.net.xml"/>
        <route-files value="simulation/intersection.rou.xml"/>
    </input>

    <output>
        <summary-output value="outputs/intersection_after_ai_summary.xml"/>
        <tripinfo-output value="outputs/intersection_after_ai_tripinfo.xml"/>
    </output>

    <time>
        <begin value="0"/>
    </time>

    <traci_server>
        <remote-port value="8813"/>
    </traci_server>

    <gui_only>
        <start value="true"/>
    </gui_only>

</sumoConfiguration>
-->

<tripinfos xmlns:xsi="http://www.w3.org/2001/XMLSchema-instance" xsi:noNamespaceSchemaLocation="http://sumo.dlr.de/xsd/tripinfo_file.xsd">
    <tripinfo id="flow_ns.0" depart="0.00" departLane="NN_0" departPos="5.10" departSpeed="0.00" departDelay="0.00" arrival="18.00" arrivalLane="NS_0" arrivalPos="89.60" arrivalSpeed="13.70" duration="18.00" routeLength="194.90" waitingTime="0.00" waitingCount="0" stopTime="0.00" timeLoss="3.65" rerouteNo="0" devices="tripinfo_flow_ns.0 routing_flow_ns.0" vType="car" speedFactor="1.01" vaporized=""/>
    <tripinfo id="flow_sn.0" depart="0.00" departLane="SN_0" departPos="5.10" departSpeed="0.00" departDelay="0.00" arrival="29.00" arrivalLane="NN_1" arrivalPos="89.60" arrivalSpeed="14.47" duration="29.00" routeLength="289.17" waitingTime="0.00" waitingCount="0" stopTime="0.00" timeLoss="8.47" rerouteNo="1" devices="tripinfo_flow_sn.0 routing_flow_sn.0" vType="car" speedFactor="1.08" vaporized=""/>
    <tripinfo id="flow_ns.1" depart="9.00" departLane="NN_0" departPos="5.10" departSpeed="0.00" departDelay="0.00" arrival="29.00" arrivalLane="NS_0" arrivalPos="89.60" arrivalSpeed="11.44" duration="20.00" routeLength="194.90" waitingTime="0.00" waitingCount="0" stopTime="0.00" timeLoss="3.58" rerouteNo="0" devices="tripinfo_flow_ns.1 routing_flow_ns.1" vType="car" speedFactor="0.86" vaporized=""/>
    <tripinfo id="flow_ns.2" depart="18.00" departLane="NN_0" departPos="5.10" departSpeed="0.00" departDelay="0.00" arrival="37.00" arrivalLane="NS_0" arrivalPos="89.60" arrivalSpeed="12.83" duration="19.00" routeLength="194.90" waitingTime="0.00" waitingCount="0" stopTime="0.00" timeLoss="3.78" rerouteNo="0" devices="tripinfo_flow_ns.2 routing_flow_ns.2" vType="car" speedFactor="0.94" vaporized=""/>
    <tripinfo id="flow_sn.1" depart="12.00" departLane="SN_0" departPos="5.10" departSpeed="0.00" departDelay="0.00" arrival="41.00" arrivalLane="NN_1" arrivalPos="89.60" arrivalSpeed="14.32" duration="29.00" routeLength="289.17" waitingTime="0.00" waitingCount="0" stopTime="0.00" timeLoss="7.71" rerouteNo="1" devices="tripinfo_flow_sn.1 routing_flow_sn.1" vType="car" speedFactor="1.05" vaporized=""/>
    <tripinfo id="flow_ns.3" depart="27.00" departLane="NN_0" departPos="5.10" departSpeed="0.00" departDelay="0.00" arrival="48.00" arrivalLane="NS_0" arrivalPos="89.60" arrivalSpeed="11.19" duration="21.00" routeLength="194.90" waitingTime="0.00" waitingCount="0" stopTime="0.00" timeLoss="3.34" rerouteNo="0" devices="tripinfo_flow_ns.3 routing_flow_ns.3" vType="car" speedFactor="0.83" vaporized=""/>
    <tripinfo id="flow_sn.2" depart="24.00" departLane="SN_0" departPos="5.10" departSpeed="0.00" departDelay="0.00" arrival="53.00" arrivalLane="NN_1" arrivalPos="89.60" arrivalSpeed="12.83" duration="29.00" routeLength="289.17" waitingTime="0.00" waitingCount="0" stopTime="0.00" timeLoss="7.15" rerouteNo="1" devices="tripinfo_flow_sn.2 routing_flow_sn.2" vType="car" speedFactor="1.01" vaporized=""/>
    <tripinfo id="flow_we.0" depart="0.00" departLane="WN_0" departPos="5.10" departSpeed="0.00" departDelay="0.00" arrival="58.00" arrivalLane="NE_0" arrivalPos="89.60" arrivalSpeed="14.05" duration="58.00" routeLength="194.90" waitingTime="34.00" waitingCount="1" stopTime="0.00" timeLoss="44.70" rerouteNo="0" devices="tripinfo_flow_we.0 routing_flow_we.0" vType="car" speedFactor="1.06" vaporized=""/>
    <tripinfo id="flow_we.1" depart="3.00" departLane="WN_0" departPos="5.10" departSpeed="0.00" departDelay="0.00" arrival="58.00" arrivalLane="NE_1" arrivalPos="89.60" arrivalSpeed="13.02" duration="55.00" routeLength="194.90" waitingTime="31.00" waitingCount="1" stopTime="0.00" timeLoss="41.19" rerouteNo="0" devices="tripinfo_flow_we.1 routing_flow_we.1" vType="car" speedFactor="1.03" vaporized=""/>
    <tripinfo id="flow_ew.0" depart="0.00" departLane="EN_0" departPos="5.10" departSpeed="0.00" departDelay="0.00" arrival="59.00" arrivalLane="NW_0" arrivalPos="89.60" arrivalSpeed="12.36" duration="59.00" routeLength="194.90" waitingTime="36.00" waitingCount="1" stopTime="0.00" timeLoss="43.81" rerouteNo="0" devices="tripinfo_flow_ew.0 routing_flow_ew.0" vType="car" speedFactor="0.94" vaporized=""/>
    <tripinfo id="flow_ew.1" depart="4.00" departLane="EN_0" departPos="5.10" departSpeed="0.00" departDelay="0.40" arrival="60.00" arrivalLane="NW_1" arrivalPos="89.60" arrivalSpeed="10.79" duration="56.00" routeLength="194.90" waitingTime="31.00" waitingCount="1" stopTime="0.00" timeLoss="38.68" rerouteNo="0" devices="tripinfo_flow_ew.1 routing_flow_ew.1" vType="car" speedFactor="0.83" vaporized=""/>
    <tripinfo id="flow_we.2" depart="6.00" departLane="WN_0" departPos="5.10" departSpeed="0.00" departDelay="0.00" arrival="60.00" arrivalLane="NE_0" arrivalPos="89.60" arrivalSpeed="13.44" duration="54.00" routeLength="194.90" waitingTime="30.00" waitingCount="1" stopTime="0.00" timeLoss="40.46" rerouteNo="0" devices="tripinfo_flow_we.2 routing_flow_we.2" vType="car" speedFactor="1.05" vaporized=""/>
    <tripinfo id="flow_we.3" depart="9.00" departLane="WN_0" departPos="5.10" departSpeed="0.00" departDelay="0.00" arrival="61.00" arrivalLane="NE_1" arrivalPos="89.60" arrivalSpeed="12.13" duration="52.00" routeLength="194.90" waitingTime="28.00" waitingCount="1" stopTime="0.00" timeLoss="36.48" rerouteNo="0" devices="tripinfo_flow_we.3 routing_flow_we.3" vType="car" speedFactor="0.94" vaporized=""/>
    <tripinfo id="flow_ew.2" depart="8.00" departLane="EN_0" departPos="5.10" departSpeed="0.00" departDelay="0.80" arrival="62.00" arrivalLane="NW_0" arrivalPos="89.60" arrivalSpeed="12.24" duration="54.00" routeLength="194.90" waitingTime="28.00" waitingCount="1" stopTime="0.00" timeLoss="37.43" rerouteNo="0" devices="tripinfo_flow_ew.2 routing_flow_ew.2" vType="car" speedFactor="0.89" vaporized=""/>
    <tripinfo id="flow_ew.3" depart="11.00" departLane="EN_0" departPos="5.10" departSpeed="0.00" departDelay="0.20" arrival="62.00" arrivalLane="NW_1" arrivalPos="89.60" arrivalSpeed="13.28" duration="51.00" routeLength="194.90" waitingTime="25.00" waitingCount="1" stopTime="0.00" timeLoss="37.53" rerouteNo="0" devices="tripinfo_flow_ew.3 routing_flow_ew.3" vType="car" speedFactor="1.09" vaporized=""/>
    <tripinfo id="flow_we.4" depart="12.00" departLane="WN_0" departPos="5.10" departSpeed="0.00" departDelay="0.00" arrival="62.00" arrivalLane="NE_0" arrivalPos="89.60" arrivalSpeed="14.19" duration="50.00" routeLength="194.90" waitingTime="25.00" waitingCount="1" stopTime="0.00" timeLoss="36.05" rerouteNo="0" devices="tripinfo_flow_we.4 routing_flow_we.4" vType="car" speedFactor="1.03" vaporized=""/>
    <tripinfo id="flow_we.5" depart="15.00" departLane="WN_0" departPos="5.10" departSpeed="0.00" departDelay="0.00" arrival="63.00" arrivalLane="NE_1" arrivalPos="89.60" arrivalSpeed="15.08" duration="48.00" routeLength="194.90" waitingTime="23.00" waitingCount="1" stopTime="0.00" timeLoss="34.55" rerouteNo="0" devices="tripinfo_flow_we.5 routing_flow_we.5" vType="car" speedFactor="1.12" vaporized=""/>
    <tripinfo id="flow_ew.4" depart="15.00" departLane="EN_0" departPos="5.10" departSpeed="0.00" departDelay="0.60" arrival="63.00" arrivalLane="NW_0" arrivalPos="89.60" arrivalSpeed="13.11" duration="48.00" routeLength="194.90" waitingTime="24.00" waitingCount="1" stopTime="0.00" timeLoss="33.76" rerouteNo="0" devices="tripinfo_flow_ew.4 routing_flow_ew.4" vType="car" speedFactor="0.99" vaporized=""/>
    <tripinfo id="flow_ew.5" depart="18.00" departLane="EN_0" departPos="5.10" departSpeed="0.00" departDelay="0.00" arrival="64.00" arrivalLane="NW_1" arrivalPos="89.60" arrivalSpeed="12.06" duration="46.00" routeLength="194.90" waitingTime="20.00" waitingCount="1" stopTime="0.00" timeLoss="29.38" rerouteNo="0" devices="tripinfo_flow_ew.5 routing_flow_ew.5" vType="car" speedFactor="0.88" vaporized=""/>
    <tripinfo id="flow_we.6" depart="18.00" departLane="WN_0" departPos="5.10" departSpeed="0.00" departDelay="0.00" arrival="65.00" arrivalLane="NE_0" arrivalPos="89.60" arrivalSpeed="11.67" duration="47.00" routeLength="194.90" waitingTime="22.00" waitingCount="1" stopTime="0.00" timeLoss="31.08" rerouteNo="0" devices="tripinfo_flow_we.6 routing_flow_we.6" vType="car" speedFactor="0.93" vaporized=""/>
    <tripinfo id="flow_we.7" depart="21.00" departLane="WN_0" departPos="5.10" departSpeed="0.00" departDelay="0.00" arrival="65.00" arrivalLane="NE_1" arrivalPos="89.60" arrivalSpeed="12.12" duration="44.00" routeLength="194.90" waitingTime="17.00" waitingCount="1" stopTime="0.00" timeLoss="28.53" rerouteNo="0" devices="tripinfo_flow_we.7 routing_flow_we.7" vType="car" speedFactor="0.94" vaporized=""/>
    <tripinfo id="flow_ew.6" depart="22.00" departLane="EN_0" departPos="5.10" departSpeed="0.00" departDelay="0.40" arrival="65.00" arrivalLane="NW_0" arrivalPos="89.60" arrivalSpeed="15.66" duration="43.00" routeLength="194.90" waitingTime="18.00" waitingCount="1" stopTime="0.00" timeLoss="30.40" rerouteNo="0" devices="tripinfo_flow_ew.6 routing_flow_ew.6" vType="car" speedFactor="1.16" vaporized=""/>
    <tripinfo id="flow_we.8" depart="24.00" departLane="WN_0" departPos="5.10" departSpeed="0.00" departDelay="0.00" arrival="66.00" arrivalLane="NE_0" arrivalPos="89.60" arrivalSpeed="12.86" duration="42.00" routeLength="194.90" waitingTime="16.00" waitingCount="1" stopTime="0.00" timeLoss="28.18" rerouteNo="0" devices="tripinfo_flow_we.8 routing_flow_we.8" vType="car" speedFactor="1.02" vaporized=""/>
    <tripinfo id="flow_ew.7" depart="26.00" departLane="EN_0" departPos="5.10" departSpeed="0.00" departDelay="0.80" arrival="66.00" arrivalLane="NW_1" arrivalPos="89.60" arrivalSpeed="13.46" duration="40.00" routeLength="194.90" waitingTime="11.00" waitingCount="1" stopTime="0.00" timeLoss="24.68" rerouteNo="0" devices="tripinfo_flow_ew.7 routing_flow_ew.7" vType="car" speedFactor="0.97" vaporized=""/>
    <tripinfo id="flow_we.9" depart="27.00" departLane="WN_0" departPos="5.10" departSpeed="0.00" departDelay="0.00" arrival="67.00" arrivalLane="NE_1" arrivalPos="89.60" arrivalSpeed="12.22" duration="40.00" routeLength="194.90" waitingTime="15.00" waitingCount="1" stopTime="0.00" timeLoss="23.86" rerouteNo="0" devices="tripinfo_flow_we.9 routing_flow_we.9" vType="car" speedFactor="0.89" vaporized=""/>
    <tripinfo id="flow_ew.9" depart="33.00" departLane="EN_0" departPos="5.10" departSpeed="0.00" departDelay="0.60" arrival="67.00" arrivalLane="NW_1" arrivalPos="89.60" arrivalSpeed="15.37" duration="34.00" routeLength="194.90" waitingTime="8.00" waitingCount="1" stopTime="0.00" timeLoss="21.31" rerouteNo="0" devices="tripinfo_flow_ew.9 routing_flow_ew.9" vType="car" speedFactor="1.13" vaporized=""/>
    <tripinfo id="flow_ew.8" depart="29.00" departLane="EN_0" departPos="5.10" departSpeed="0.00" departDelay="0.20" arrival="68.00" arrivalLane="NW_0" arrivalPos="89.60" arrivalSpeed="12.06" duration="39.00" routeLength="194.90" waitingTime="12.00" waitingCount="1" stopTime="0.00" timeLoss="22.05" rerouteNo="0" devices="tripinfo_flow_ew.8 routing_flow_ew.8" vType="car" speedFactor="0.87" vaporized=""/>
    <tripinfo id="flow_we.10" depart="30.00" departLane="WN_0" departPos="5.10" departSpeed="0.00" departDelay="0.00" arrival="69.00" arrivalLane="NE_0" arrivalPos="89.60" arrivalSpeed="12.29" duration="39.00" routeLength="194.90" waitingTime="14.00" waitingCount="1" stopTime="0.00" timeLoss="22.97" rerouteNo="0" devices="tripinfo_flow_we.10 routing_flow_we.10" vType="car" speedFactor="0.92" vaporized=""/>
    <tripinfo id="flow_we.11" depart="33.00" departLane="WN_0" departPos="5.10" departSpeed="0.00" departDelay="0.00" arrival="69.00" arrivalLane="NE_1" arrivalPos="89.60" arrivalSpeed="12.38" duration="36.00" routeLength="194.90" waitingTime="12.00" waitingCount="1" stopTime="0.00" timeLoss="20.65" rerouteNo="0" devices="tripinfo_flow_we.11 routing_flow_we.11" vType="car" speedFactor="0.95" vaporized=""/>
    <tripinfo id="flow_ew.10" depart="36.00" departLane="EN_0" departPos="5.10" departSpeed="0.00" departDelay="0.00" arrival="69.00" arrivalLane="NW_0" arrivalPos="89.60" arrivalSpeed="12.97" duration="33.00" routeLength="194.90" waitingTime="8.00" waitingCount="1" stopTime="0.00" timeLoss="20.99" rerouteNo="0" devices="tripinfo_flow_ew.10 routing_flow_ew.10" vType="car" speedFactor="1.18" vaporized=""/>
    <tripinfo id="flow_ew.11" depart="40.00" departLane="EN_0" departPos="5.10" departSpeed="0.00" departDelay="0.40" arrival="69.00" arrivalLane="NW_1" arrivalPos="89.60" arrivalSpeed="13.19" duration="29.00" routeLength="194.90" waitingTime="2.00" waitingCount="1" stopTime="0.00" timeLoss="14.37" rerouteNo="0" devices="tripinfo_flow_ew.11 routing_flow_ew.11" vType="car" speedFactor="0.99" vaporized=""/>
    <tripinfo id="flow_we.13" depart="39.00" departLane="WN_0" departPos="5.10" departSpeed="0.00" departDelay="0.00" arrival="70.00" arrivalLane="NE_1" arrivalPos="89.60" arrivalSpeed="15.78" duration="31.00" routeLength="194.90" waitingTime="6.00" waitingCount="1" stopTime="0.00" timeLoss="18.98" rerouteNo="0" devices="tripinfo_flow_we.13 routing_flow_we.13" vType="car" speedFactor="1.17" vaporized=""/>
    <tripinfo id="flow_we.12" depart="36.00" departLane="WN_0" departPos="5.10" departSpeed="0.00" departDelay="0.00" arrival="71.00" arrivalLane="NE_0" arrivalPos="89.60" arrivalSpeed="12.72" duration="35.00" routeLength="194.90" waitingTime="9.00" waitingCount="1" stopTime="0.00" timeLoss="18.99" rerouteNo="0" devices="tripinfo_flow_we.12 routing_flow_we.12" vType="car" speedFactor="0.93" vaporized=""/>
    <tripinfo id="flow_ew.12" depart="44.00" departLane="EN_0" departPos="5.10" departSpeed="0.00" departDelay="0.80" arrival="71.00" arrivalLane="NW_0" arrivalPos="89.60" arrivalSpeed="12.50" duration="27.00" routeLength="194.90" waitingTime="1.00" waitingCount="1" stopTime="0.00" timeLoss="12.15" rerouteNo="0" devices="tripinfo_flow_ew.12 routing_flow_ew.12" vType="car" speedFactor="0.97" vaporized=""/>
    <tripinfo id="flow_ew.13" depart="47.00" departLane="EN_0" departPos="5.10" departSpeed="0.00" departDelay="0.20" arrival="71.00" arrivalLane="NW_1" arrivalPos="89.60" arrivalSpeed="11.38" duration="24.00" routeLength="194.90" waitingTime="0.00" waitingCount="0" stopTime="0.00" timeLoss="8.03" rerouteNo="0" devices="tripinfo_flow_ew.13 routing_flow_ew.13" vType="car" speedFactor="0.90" vaporized=""/>
    <tripinfo id="flow_we.14" depart="42.00" departLane="WN_0" departPos="5.10" departSpeed="0.00" departDelay="0.00" arrival="72.00" arrivalLane="NE_0" arrivalPos="89.60" arrivalSpeed="13.62" duration="30.00" routeLength="194.90" waitingTime="4.00" waitingCount="1" stopTime="0.00" timeLoss="15.98" rerouteNo="0" devices="tripinfo_flow_we.14 routing_flow_we.14" vType="car" speedFactor="1.02" vaporized=""/>
    <tripinfo id="flow_we.15" depart="45.00" departLane="WN_0" departPos="5.10" departSpeed="0.00" departDelay="0.00" arrival="72.00" arrivalLane="NE_1" arrivalPos="89.60" arrivalSpeed="15.88" duration="27.00" routeLength="194.90" waitingTime="1.00" waitingCount="1" stopTime="0.00" timeLoss="14.71" rerouteNo="0" devices="tripinfo_flow_we.15 routing_flow_we.15" vType="car" speedFactor="1.18" vaporized=""/>
    <tripinfo id="flow_ew.14" depart="51.00" departLane="EN_0" departPos="5.10" departSpeed="0.00" departDelay="0.60" arrival="73.00" arrivalLane="NW_0" arrivalPos="89.60" arrivalSpeed="13.72" duration="22.00" routeLength="194.90" waitingTime="0.00" waitingCount="0" stopTime="0.00" timeLoss="7.70" rerouteNo="0" devices="tripinfo_flow_ew.14 routing_flow_ew.14" vType="car" speedFactor="1.04" vaporized=""/>
    <tripinfo id="flow_ew.15" depart="54.00" departLane="EN_0" departPos="5.10" departSpeed="0.00" departDelay="0.00" arrival="73.00" arrivalLane="NW_1" arrivalPos="89.60" arrivalSpeed="14.01" duration="19.00" routeLength="194.90" waitingTime="0.00" waitingCount="0" stopTime="0.00" timeLoss="5.31" rerouteNo="0" devices="tripinfo_flow_ew.15 routing_flow_ew.15" vType="car" speedFactor="1.09" vaporized=""/>
    <tripinfo id="flow_sn.3" depart="36.00" departLane="SN_0" departPos="5.10" departSpeed="0.00" departDelay="0.00" arrival="74.00" arrivalLane="NN_1" arrivalPos="89.60" arrivalSpeed="6.12" duration="38.00" routeLength="289.17" waitingTime="5.00" waitingCount="1" stopTime="0.00" timeLoss="16.40" rerouteNo="1" devices="tripinfo_flow_sn.3 routing_flow_sn.3" vType="car" speedFactor="1.01" vaporized=""/>
    <tripinfo id="flow_we.16" depart="48.00" departLane="WN_0" departPos="5.10" departSpeed="0.00" departDelay="0.00" arrival="74.00" arrivalLane="NE_0" arrivalPos="89.60" arrivalSpeed="13.72" duration="26.00" routeLength="194.90" waitingTime="0.00" waitingCount="0" stopTime="0.00" timeLoss="11.82" rerouteNo="0" devices="tripinfo_flow_we.16 routing_flow_we.16" vType="car" speedFactor="1.03" vaporized=""/>
    <tripinfo id="flow_we.17" depart="51.00" departLane="WN_0" departPos="5.10" departSpeed="0.00" departDelay="0.00" arrival="74.00" arrivalLane="NE_1" arrivalPos="89.60" arrivalSpeed="13.96" duration="23.00" routeLength="194.90" waitingTime="0.00" waitingCount="0" stopTime="0.00" timeLoss="9.54" rerouteNo="0" devices="tripinfo_flow_we.17 routing_flow_we.17" vType="car" speedFactor="1.09" vaporized=""/>
    <tripinfo id="flow_we.18" depart="54.00" departLane="WN_0" departPos="5.10" departSpeed="0.00" departDelay="0.00" arrival="76.00" arrivalLane="NE_0" arrivalPos="89.60" arrivalSpeed="14.30" duration="22.00" routeLength="194.90" waitingTime="0.00" waitingCount="0" stopTime="0.00" timeLoss="7.72" rerouteNo="0" devices="tripinfo_flow_we.18 routing_flow_we.18" vType="car" speedFactor="1.04" vaporized=""/>
    <tripinfo id="flow_we.19" depart="57.00" departLane="WN_0" departPos="5.10" departSpeed="0.00" departDelay="0.00" arrival="77.00" arrivalLane="NE_1" arrivalPos="89.60" arrivalSpeed="12.42" duration="20.00" routeLength="194.90" waitingTime="0.00" waitingCount="0" stopTime="0.00" timeLoss="4.21" rerouteNo="0" devices="tripinfo_flow_we.19 routing_flow_we.19" vType="car" speedFactor="0.90" vaporized=""/>
    <tripinfo id="flow_ns.4" depart="36.00" departLane="NN_0" departPos="5.10" departSpeed="0.00" departDelay="0.00" arrival="81.00" arrivalLane="NS_0" arrivalPos="89.60" arrivalSpeed="15.42" duration="45.00" routeLength="194.90" waitingTime="22.00" waitingCount="1" stopTime="0.00" timeLoss="32.66" rerouteNo="0" devices="tripinfo_flow_ns.4 routing_flow_ns.4" vType="car" speedFactor="1.15" vaporized=""/>
    <tripinfo id="flow_ns.5" depart="45.00" departLane="NN_0" departPos="5.10" departSpeed="0.00" departDelay="0.00" arrival="81.00" arrivalLane="NS_1" arrivalPos="89.60" arrivalSpeed="14.22" duration="36.00" routeLength="194.90" waitingTime="13.00" waitingCount="1" stopTime="0.00" timeLoss="22.94" rerouteNo="0" devices="tripinfo_flow_ns.5 routing_flow_ns.5" vType="car" speedFactor="1.10" vaporized=""/>
    <tripinfo id="flow_ns.6" depart="54.00" departLane="NN_0" departPos="5.10" departSpeed="0.00" departDelay="0.00" arrival="84.00" arrivalLane="NS_0" arrivalPos="89.60" arrivalSpeed="12.74" duration="30.00" routeLength="194.90" waitingTime="5.00" waitingCount="1" stopTime="0.00" timeLoss="15.56" rerouteNo="0" devices="tripinfo_flow_ns.6 routing_flow_ns.6" vType="car" speedFactor="1.00" vaporized=""/>
    <tripinfo id="flow_ns.7" depart="63.00" departLane="NN_0" departPos="5.10" departSpeed="0.00" departDelay="0.00" arrival="85.00" arrivalLane="NS_1" arrivalPos="89.60" arrivalSpeed="14.56" duration="22.00" routeLength="194.90" waitingTime="0.00" waitingCount="0" stopTime="0.00" timeLoss="8.37" rerouteNo="0" devices="tripinfo_flow_ns.7 routing_flow_ns.7" vType="car" speedFactor="1.10" vaporized=""/>
    <tripinfo id="flow_ns.8" depart="72.00" departLane="NN_0" departPos="5.10" departSpeed="0.00" departDelay="0.00" arrival="90.00" arrivalLane="NS_0" arrivalPos="89.60" arrivalSpeed="14.09" duration="18.00" routeLength="194.90" waitingTime="0.00" waitingCount="0" stopTime="0.00" timeLoss="4.34" rerouteNo="0" devices="tripinfo_flow_ns.8 routing_flow_ns.8" vType="car" speedFactor="1.08" vaporized=""/>
    <tripinfo id="flow_sn.4" depart="48.00" departLane="SN_0" departPos="5.10" departSpeed="0.00" departDelay="0.00" arrival="94.00" arrivalLane="NN_1" arrivalPos="89.60" arrivalSpeed="12.34" duration="46.00" routeLength="289.17" waitingTime="11.00" waitingCount="1" stopTime="0.00" timeLoss="22.88" rerouteNo="1" devices="tripinfo_flow_sn.4 routing_flow_sn.4" vType="car" speedFactor="0.96" vaporized=""/>
    <tripinfo id="flow_sn.5" depart="60.00" departLane="SN_0" departPos="5.10" departSpeed="0.00" departDelay="0.00" arrival="99.00" arrivalLane="NN_1" arrivalPos="89.60" arrivalSpeed="10.92" duration="39.00" routeLength="289.17" waitingTime="1.00" waitingCount="1" stopTime="0.00" timeLoss="12.83" rerouteNo="1" devices="tripinfo_flow_sn.5 routing_flow_sn.5" vType="car" speedFactor="0.85" vaporized=""/>
    <tripinfo id="flow_ns.9" depart="81.00" departLane="NN_0" departPos="5.10" departSpeed="0.00" departDelay="0.00" arrival="100.00" arrivalLane="NS_0" arrivalPos="89.60" arrivalSpeed="12.40" duration="19.00" routeLength="194.90" waitingTime="0.00" waitingCount="0" stopTime="0.00" timeLoss="3.51" rerouteNo="0" devices="tripinfo_flow_ns.9 routing_flow_ns.9" vType="car" speedFactor="0.91" vaporized=""/>
    <tripinfo id="flow_sn.6" depart="72.00" departLane="SN_0" departPos="5.10" departSpeed="0.00" departDelay="0.00" arrival="101.00" arrivalLane="NN_1" arrivalPos="89.60" arrivalSpeed="14.69" duration="29.00" routeLength="289.17" waitingTime="0.00" waitingCount="0" stopTime="0.00" timeLoss="8.88" rerouteNo="1" devices="tripinfo_flow_sn.6 routing_flow_sn.6" vType="car" speedFactor="1.12" vaporized=""/>
    <tripinfo id="flow_ns.10" depart="90.00" departLane="NN_0" departPos="5.10" departSpeed="0.00" departDelay="0.00" arrival="108.00" arrivalLane="NS_0" arrivalPos="89.60" arrivalSpeed="12.82" duration="18.00" routeLength="194.90" waitingTime="0.00" waitingCount="0" stopTime="0.00" timeLoss="3.66" rerouteNo="0" devices="tripinfo_flow_ns.10 routing_flow_ns.10" vType="car" speedFactor="0.98" vaporized=""/>
    <tripinfo id="flow_sn.7" depart="84.00" departLane="SN_0" departPos="5.10" departSpeed="0.00" departDelay="0.00" arrival="112.00" arrivalLane="NN_1" arrivalPos="89.60" arrivalSpeed="13.79" duration="28.00" routeLength="289.17" waitingTime="0.00" waitingCount="0" stopTime="0.00" timeLoss="6.72" rerouteNo="1" devices="tripinfo_flow_sn.7 routing_flow_sn.7" vType="car" speedFactor="1.02" vaporized=""/>
    <tripinfo id="flow_ns.11" depart="99.00" departLane="NN_0" departPos="5.10" departSpeed="0.00" departDelay="0.00" arrival="117.00" arrivalLane="NS_0" arrivalPos="89.60" arrivalSpeed="13.11" duration="18.00" routeLength="194.90" waitingTime="0.00" waitingCount="0" stopTime="0.00" timeLoss="3.31" rerouteNo="0" devices="tripinfo_flow_ns.11 routing_flow_ns.11" vType="car" speedFactor="1.02" vaporized=""/>
    <tripinfo id="flow_sn.8" depart="96.00" departLane="SN_0" departPos="5.10" departSpeed="0.00" departDelay="0.00" arrival="124.00" arrivalLane="NN_1" arrivalPos="89.60" arrivalSpeed="14.67" duration="28.00" routeLength="289.17" waitingTime="0.00" waitingCount="0" stopTime="0.00" timeLoss="7.84" rerouteNo="1" devices="tripinfo_flow_sn.8 routing_flow_sn.8" vType="car" speedFactor="1.09" vaporized=""/>
    <tripinfo id="flow_ew.17" depart="62.00" departLane="EN_0" departPos="5.10" departSpeed="0.00" departDelay="0.80" arrival="129.00" arrivalLane="NW_1" arrivalPos="89.60" arrivalSpeed="16.07" duration="67.00" routeLength="194.90" waitingTime="44.00" waitingCount="1" stopTime="0.00" timeLoss="54.40" rerouteNo="0" devices="tripinfo_flow_ew.17 routing_flow_ew.17" vType="car" speedFactor="1.17" vaporized=""/>
    <tripinfo id="flow_we.21" depart="63.00" departLane="WN_0" departPos="5.10" departSpeed="0.00" departDelay="0.00" arrival="130.00" arrivalLane="NE_1" arrivalPos="89.60" arrivalSpeed="13.00" duration="67.00" routeLength="194.90" waitingTime="43.00" waitingCount="1" stopTime="0.00" timeLoss="52.39" rerouteNo="0" devices="tripinfo_flow_we.21 routing_flow_we.21" vType="car" speedFactor="1.02" vaporized=""/>
    <tripinfo id="flow_ew.16" depart="58.00" departLane="EN_0" departPos="5.10" departSpeed="0.00" departDelay="0.40" arrival="131.00" arrivalLane="NW_0" arrivalPos="89.60" arrivalSpeed="11.20" duration="73.00" routeLength="194.90" waitingTime="48.00" waitingCount="1" stopTime="0.00" timeLoss="56.63" rerouteNo="0" devices="tripinfo_flow_ew.16 routing_flow_ew.16" vType="car" speedFactor="0.88" vaporized=""/>
    <tripinfo id="flow_we.20" depart="60.00" departLane="WN_0" departPos="5.10" departSpeed="0.00" departDelay="0.00" arrival="131.00" arrivalLane="NE_0" arrivalPos="89.60" arrivalSpeed="11.16" duration="71.00" routeLength="194.90" waitingTime="46.00" waitingCount="1" stopTime="0.00" timeLoss="53.69" rerouteNo="0" devices="tripinfo_flow_we.20 routing_flow_we.20" vType="car" speedFactor="0.85" vaporized=""/>
    <tripinfo id="flow_ew.19" depart="69.00" departLane="EN_0" departPos="5.10" departSpeed="0.00" departDelay="0.60" arrival="131.00" arrivalLane="NW_1" arrivalPos="89.60" arrivalSpeed="15.61" duration="62.00" routeLength="194.90" waitingTime="39.00" waitingCount="1" stopTime="0.00" timeLoss="48.87" rerouteNo="0" devices="tripinfo_flow_ew.19 routing_flow_ew.19" vType="car" speedFactor="1.14" vaporized=""/>
    <tripinfo id="flow_we.22" depart="66.00" departLane="WN_0" departPos="5.10" departSpeed="0.00" departDelay="0.00" arrival="132.00" arrivalLane="NE_0" arrivalPos="89.60" arrivalSpeed="12.77" duration="66.00" routeLength="194.90" waitingTime="43.00" waitingCount="1" stopTime="0.00" timeLoss="51.75" rerouteNo="0" devices="tripinfo_flow_we.22 routing_flow_we.22" vType="car" speedFactor="1.00" vaporized=""/>
    <tripinfo id="flow_we.23" depart="69.00" departLane="WN_0" departPos="5.10" departSpeed="0.00" departDelay="0.00" arrival="132.00" arrivalLane="NE_1" arrivalPos="89.60" arrivalSpeed="11.87" duration="63.00" routeLength="194.90" waitingTime="38.00" waitingCount="1" stopTime="0.00" timeLoss="47.14" rerouteNo="0" devices="tripinfo_flow_we.23 routing_flow_we.23" vType="car" speedFactor="0.90" vaporized=""/>
    <tripinfo id="flow_ew.18" depart="65.00" departLane="EN_0" departPos="5.10" departSpeed="0.00" departDelay="0.20" arrival="133.00" arrivalLane="NW_0" arrivalPos="89.60" arrivalSpeed="12.85" duration="68.00" routeLength="194.90" waitingTime="42.00" waitingCount="1" stopTime="0.00" timeLoss="53.25" rerouteNo="0" devices="tripinfo_flow_ew.18 routing_flow_ew.18" vType="car" speedFactor="1.00" vaporized=""/>
    <tripinfo id="flow_ew.21" depart="76.00" departLane="EN_0" departPos="5.10" departSpeed="0.00" departDelay="0.40" arrival="133.00" arrivalLane="NW_1" arrivalPos="89.60" arrivalSpeed="12.83" duration="57.00" routeLength="194.90" waitingTime="32.00" waitingCount="1" stopTime="0.00" timeLoss="42.56" rerouteNo="0" devices="tripinfo_flow_ew.21 routing_flow_ew.21" vType="car" speedFactor="0.99" vaporized=""/>
    <tripinfo id="flow_we.24" depart="72.00" departLane="WN_0" departPos="5.10" departSpeed="0.00" departDelay="0.00" arrival="134.00" arrivalLane="NE_0" arrivalPos="89.60" arrivalSpeed="13.19" duration="62.00" routeLength="194.90" waitingTime="37.00" waitingCount="1" stopTime="0.00" timeLoss="47.88" rerouteNo="0" devices="tripinfo_flow_we.24 routing_flow_we.24" vType="car" speedFactor="1.02" vaporized=""/>
    <tripinfo id="flow_ew.20" depart="72.00" departLane="EN_0" departPos="5.10" departSpeed="0.00" departDelay="0.00" arrival="134.00" arrivalLane="NW_0" arrivalPos="89.60" arrivalSpeed="12.85" duration="62.00" routeLength="194.90" waitingTime="38.00" waitingCount="1" stopTime="0.00" timeLoss="47.46" rerouteNo="0" devices="tripinfo_flow_ew.20 routing_flow_ew.20" vType="car" speedFactor="0.97" vaporized=""/>
    <tripinfo id="flow_we.25" depart="75.00" departLane="WN_0" departPos="5.10" departSpeed="0.00" departDelay="0.00" arrival="134.00" arrivalLane="NE_1" arrivalPos="89.60" arrivalSpeed="13.96" duration="59.00" routeLength="194.90" waitingTime="33.00" waitingCount="1" stopTime="0.00" timeLoss="44.53" rerouteNo="0" devices="tripinfo_flow_we.25 routing_flow_we.25" vType="car" speedFactor="1.02" vaporized=""/>
    <tripinfo id="flow_ew.23" depart="83.00" departLane="EN_0" departPos="5.10" departSpeed="0.00" departDelay="0.20" arrival="135.00" arrivalLane="NW_1" arrivalPos="89.60" arrivalSpeed="13.38" duration="52.00" routeLength="194.90" waitingTime="26.00" waitingCount="1" stopTime="0.00" timeLoss="38.42" rerouteNo="0" devices="tripinfo_flow_ew.23 routing_flow_ew.23" vType="car" speedFactor="1.04" vaporized=""/>
    <tripinfo id="flow_we.26" depart="79.00" departLane="WN_0" departPos="5.10" departSpeed="0.00" departDelay="1.00" arrival="136.00" arrivalLane="NE_0" arrivalPos="89.60" arrivalSpeed="12.15" duration="57.00" routeLength="194.90" waitingTime="32.00" waitingCount="1" stopTime="0.00" timeLoss="41.55" rerouteNo="0" devices="tripinfo_flow_we.26 routing_flow_we.26" vType="car" speedFactor="0.94" vaporized=""/>