<?xml version="1.0" encoding="UTF-8"?>

<!-- generated on 2025-09-20 11:53:20 by Eclipse SUMO GUI Version 1.24.0
<sumoConfiguration xmlns:xsi="http://www.w3.org/2001/XMLSchema-instance" xsi:noNamespaceSchemaLocation="http://sumo.dlr.de/xsd/sumoConfiguration.xsd">

    <input>
        <net-file value="simulation/intersection.net.xml"/>
        <route-files value="simulation/intersection.rou.xml"/>
    </input>

    <output>
        <summary-output value="outputs/intersection_after_ai_summary.xml"/>
        <tripinfo-output value="outputs/intersection_after_ai_tripinfo.xml"/>
    </output>

    <time>
        <begin value="0"/>
    </time>

    <traci_server>
        <remote-port value="8813"/>
    </traci_server>

    <gui_only>
        <start value="true"/>
    </gui_only>

</sumoConfiguration>
-->

<tripinfos xmlns:xsi="http://www.w3.org/2001/XMLSchema-instance" xsi:noNamespaceSchemaLocation="http://sumo.dlr.de/xsd/tripinfo_file.xsd">
    <tripinfo id="flow_ns.0" depart="0.00" departLane="NN_0" departPos="5.10" departSpeed="0.00" departDelay="0.00" arrival="19.00" arrivalLane="NS_0" arrivalPos="89.60" arrivalSpeed="12.70" duration="19.00" routeLength="194.90" waitingTime="0.00" waitingCount="0" stopTime="0.00" timeLoss="3.52" rerouteNo="0" devices="tripinfo_flow_ns.0 routing_flow_ns.0" vType="car" speedFactor="0.94" vaporized=""/>
    <tripinfo id="flow_ns.1" depart="9.00" departLane="NN_0" departPos="5.10" departSpeed="0.00" departDelay="0.00" arrival="30.00" arrivalLane="NS_0" arrivalPos="89.60" arrivalSpeed="11.08" duration="21.00" routeLength="194.90" waitingTime="0.00" waitingCount="0" stopTime="0.00" timeLoss="3.58" rerouteNo="0" devices="tripinfo_flow_ns.1 routing_flow_ns.1" vType="car" speedFactor="0.83" vaporized=""/>
    <tripinfo id="flow_ns.2" depart="18.00" departLane="NN_0" departPos="5.10" departSpeed="0.00" departDelay="0.00" arrival="39.00" arrivalLane="NS_0" arrivalPos="89.60" arrivalSpeed="11.44" duration="21.00" routeLength="194.90" waitingTime="0.00" waitingCount="0" stopTime="0.00" timeLoss="3.72" rerouteNo="0" devices="tripinfo_flow_ns.2 routing_flow_ns.2" vType="car" speedFactor="0.86" vaporized=""/>
    <tripinfo id="flow_ns.3" depart="27.00" departLane="NN_0" departPos="5.10" departSpeed="0.00" departDelay="0.00" arrival="44.00" arrivalLane="NS_0" arrivalPos="89.60" arrivalSpeed="15.32" duration="17.00" routeLength="194.90" waitingTime="0.00" waitingCount="0" stopTime="0.00" timeLoss="3.81" rerouteNo="0" devices="tripinfo_flow_ns.3 routing_flow_ns.3" vType="car" speedFactor="1.12" vaporized=""/>
    <tripinfo id="flow_we.0" depart="0.00" departLane="WN_0" departPos="5.10" departSpeed="0.00" departDelay="0.00" arrival="55.00" arrivalLane="NE_0" arrivalPos="89.60" arrivalSpeed="14.43" duration="55.00" routeLength="194.90" waitingTime="31.00" waitingCount="1" stopTime="0.00" timeLoss="41.55" rerouteNo="0" devices="tripinfo_flow_we.0 routing_flow_we.0" vType="car" speedFactor="1.06" vaporized=""/>
    <tripinfo id="flow_we.1" depart="3.00" departLane="WN_0" departPos="5.10" departSpeed="0.00" departDelay="0.00" arrival="55.00" arrivalLane="NE_1" arrivalPos="89.60" arrivalSpeed="13.81" duration="52.00" routeLength="194.90" waitingTime="28.00" waitingCount="1" stopTime="0.00" timeLoss="37.97" rerouteNo="0" devices="tripinfo_flow_we.1 routing_flow_we.1" vType="car" speedFactor="1.01" vaporized=""/>
    <tripinfo id="flow_we.2" depart="6.00" departLane="WN_0" departPos="5.10" departSpeed="0.00" departDelay="0.00" arrival="57.00" arrivalLane="NE_0" arrivalPos="89.60" arrivalSpeed="13.95" duration="51.00" routeLength="194.90" waitingTime="27.00" waitingCount="1" stopTime="0.00" timeLoss="37.64" rerouteNo="0" devices="tripinfo_flow_we.2 routing_flow_we.2" vType="car" speedFactor="1.08" vaporized=""/>
    <tripinfo id="flow_we.3" depart="9.00" departLane="WN_0" departPos="5.10" departSpeed="0.00" departDelay="0.00" arrival="57.00" arrivalLane="NE_1" arrivalPos="89.60" arrivalSpeed="13.14" duration="48.00" routeLength="194.90" waitingTime="25.00" waitingCount="1" stopTime="0.00" timeLoss="34.11" rerouteNo="0" devices="tripinfo_flow_we.3 routing_flow_we.3" vType="car" speedFactor="1.03" vaporized=""/>
    <tripinfo id="flow_we.4" depart="12.00" departLane="WN_0" departPos="5.10" departSpeed="0.00" departDelay="0.00" arrival="59.00" arrivalLane="NE_0" arrivalPos="89.60" arrivalSpeed="13.92" duration="47.00" routeLength="194.90" waitingTime="22.00" waitingCount="1" stopTime="0.00" timeLoss="32.91" rerouteNo="0" devices="tripinfo_flow_we.4 routing_flow_we.4" vType="car" speedFactor="1.05" vaporized=""/>
    <tripinfo id="flow_we.5" depart="15.00" departLane="WN_0" departPos="5.10" departSpeed="0.00" departDelay="0.00" arrival="60.00" arrivalLane="NE_1" arrivalPos="89.60" arrivalSpeed="11.14" duration="45.00" routeLength="194.90" waitingTime="20.00" waitingCount="1" stopTime="0.00" timeLoss="29.02" rerouteNo="0" devices="tripinfo_flow_we.5 routing_flow_we.5" vType="car" speedFactor="0.89" vaporized=""/>
    <tripinfo id="flow_we.6" depart="18.00" departLane="WN_0" departPos="5.10" departSpeed="0.00" departDelay="0.00" arrival="62.00" arrivalLane="NE_0" arrivalPos="89.60" arrivalSpeed="12.24" duration="44.00" routeLength="194.90" waitingTime="19.00" waitingCount="1" stopTime="0.00" timeLoss="28.33" rerouteNo="0" devices="tripinfo_flow_we.6 routing_flow_we.6" vType="car" speedFactor="0.94" vaporized=""/>
    <tripinfo id="flow_we.7" depart="21.00" departLane="WN_0" departPos="5.10" departSpeed="0.00" departDelay="0.00" arrival="62.00" arrivalLane="NE_1" arrivalPos="89.60" arrivalSpeed="14.74" duration="41.00" routeLength="194.90" waitingTime="14.00" waitingCount="1" stopTime="0.00" timeLoss="27.36" rerouteNo="0" devices="tripinfo_flow_we.7 routing_flow_we.7" vType="car" speedFactor="1.09" vaporized=""/>
    <tripinfo id="flow_we.8" depart="24.00" departLane="WN_0" departPos="5.10" departSpeed="0.00" departDelay="0.00" arrival="64.00" arrivalLane="NE_0" arrivalPos="89.60" arrivalSpeed="13.86" duration="40.00" routeLength="194.90" waitingTime="13.00" waitingCount="1" stopTime="0.00" timeLoss="25.39" rerouteNo="0" devices="tripinfo_flow_we.8 routing_flow_we.8" vType="car" speedFactor="1.03" vaporized=""/>
    <tripinfo id="flow_we.9" depart="27.00" departLane="WN_0" departPos="5.10" departSpeed="0.00" departDelay="0.00" arrival="64.00" arrivalLane="NE_1" arrivalPos="89.60" arrivalSpeed="14.26" duration="37.00" routeLength="194.90" waitingTime="12.00" waitingCount="1" stopTime="0.00" timeLoss="22.63" rerouteNo="0" devices="tripinfo_flow_we.9 routing_flow_we.9" vType="car" speedFactor="1.05" vaporized=""/>
    <tripinfo id="flow_we.10" depart="30.00" departLane="WN_0" departPos="5.10" departSpeed="0.00" departDelay="0.00" arrival="65.00" arrivalLane="NE_0" arrivalPos="89.60" arrivalSpeed="12.71" duration="35.00" routeLength="194.90" waitingTime="11.00" waitingCount="1" stopTime="0.00" timeLoss="20.67" rerouteNo="0" devices="tripinfo_flow_we.10 routing_flow_we.10" vType="car" speedFactor="0.99" vaporized=""/>
    <tripinfo id="flow_we.11" depart="33.00" departLane="WN_0" departPos="5.10" departSpeed="0.00" departDelay="0.00" arrival="66.00" arrivalLane="NE_1" arrivalPos="89.60" arrivalSpeed="12.30" duration="33.00" routeLength="194.90" waitingTime="9.00" waitingCount="1" stopTime="0.00" timeLoss="16.99" rerouteNo="0" devices="tripinfo_flow_we.11 routing_flow_we.11" vType="car" speedFactor="0.93" vaporized=""/>
    <tripinfo id="flow_we.13" depart="39.00" departLane="WN_0" departPos="5.10" departSpeed="0.00" departDelay="0.00" arrival="67.00" arrivalLane="NE_1" arrivalPos="89.60" arrivalSpeed="12.62" duration="28.00" routeLength="194.90" waitingTime="2.00" waitingCount="1" stopTime="0.00" timeLoss="12.95" rerouteNo="0" devices="tripinfo_flow_we.13 routing_flow_we.13" vType="car" speedFactor="0.94" vaporized=""/>
    <tripinfo id="flow_we.12" depart="36.00" departLane="WN_0" departPos="5.10" departSpeed="0.00" departDelay="0.00" arrival="68.00" arrivalLane="NE_0" arrivalPos="89.60" arrivalSpeed="11.51" duration="32.00" routeLength="194.90" waitingTime="6.00" waitingCount="1" stopTime="0.00" timeLoss="15.62" rerouteNo="0" devices="tripinfo_flow_we.12 routing_flow_we.12" vType="car" speedFactor="0.88" vaporized=""/>
    <tripinfo id="flow_we.15" depart="45.00" departLane="WN_0" departPos="5.10" departSpeed="0.00" departDelay="0.00" arrival="69.00" arrivalLane="NE_1" arrivalPos="89.60" arrivalSpeed="14.03" duration="24.00" routeLength="194.90" waitingTime="0.00" waitingCount="0" stopTime="0.00" timeLoss="9.78" rerouteNo="0" devices="tripinfo_flow_we.15 routing_flow_we.15" vType="car" speedFactor="1.02" vaporized=""/>
    <tripinfo id="flow_we.14" depart="42.00" departLane="WN_0" departPos="5.10" departSpeed="0.00" departDelay="0.00" arrival="70.00" arrivalLane="NE_0" arrivalPos="89.60" arrivalSpeed="15.49" duration="28.00" routeLength="194.90" waitingTime="3.00" waitingCount="1" stopTime="0.00" timeLoss="15.06" rerouteNo="0" devices="tripinfo_flow_we.14 routing_flow_we.14" vType="car" speedFactor="1.16" vaporized=""/>
    <tripinfo id="flow_we.16" depart="48.00" departLane="WN_0" departPos="5.10" departSpeed="0.00" departDelay="0.00" arrival="74.00" arrivalLane="NE_0" arrivalPos="89.60" arrivalSpeed="12.42" duration="26.00" routeLength="194.90" waitingTime="0.00" waitingCount="0" stopTime="0.00" timeLoss="10.78" rerouteNo="0" devices="tripinfo_flow_we.16 routing_flow_we.16" vType="car" speedFactor="0.97" vaporized=""/>
    <tripinfo id="flow_we.17" depart="51.00" departLane="WN_0" departPos="5.10" departSpeed="0.00" departDelay="0.00" arrival="75.00" arrivalLane="NE_1" arrivalPos="89.60" arrivalSpeed="11.15" duration="24.00" routeLength="194.90" waitingTime="0.00" waitingCount="0" stopTime="0.00" timeLoss="7.47" rerouteNo="0" devices="tripinfo_flow_we.17 routing_flow_we.17" vType="car" speedFactor="0.89" vaporized=""/>
    <tripinfo id="flow_we.18" depart="54.00" departLane="WN_0" departPos="5.10" departSpeed="0.00" departDelay="0.00" arrival="77.00" arrivalLane="NE_0" arrivalPos="89.60" arrivalSpeed="11.31" duration="23.00" routeLength="194.90" waitingTime="0.00" waitingCount="0" stopTime="0.00" timeLoss="5.11" rerouteNo="0" devices="tripinfo_flow_we.18 routing_flow_we.18" vType="car" speedFactor="0.83" vaporized=""/>
    <tripinfo id="flow_we.19" depart="57.00" departLane="WN_0" departPos="5.10" departSpeed="0.00" departDelay="0.00" arrival="77.00" arrivalLane="NE_1" arrivalPos="89.60" arrivalSpeed="12.15" duration="20.00" routeLength="194.90" waitingTime="0.00" waitingCount="0" stopTime="0.00" timeLoss="4.06" rerouteNo="0" devices="tripinfo_flow_we.19 routing_flow_we.19" vType="car" speedFactor="0.92" vaporized=""/>
    <tripinfo id="flow_we.20" depart="60.00" departLane="WN_0" departPos="5.10" departSpeed="0.00" departDelay="0.00" arrival="79.00" arrivalLane="NE_0" arrivalPos="89.60" arrivalSpeed="12.20" duration="19.00" routeLength="194.90" waitingTime="0.00" waitingCount="0" stopTime="0.00" timeLoss="3.97" rerouteNo="0" devices="tripinfo_flow_we.20 routing_flow_we.20" vType="car" speedFactor="0.95" vaporized=""/>
    <tripinfo id="flow_we.21" depart="63.00" departLane="WN_0" departPos="5.10" departSpeed="0.00" departDelay="0.00" arrival="81.00" arrivalLane="NE_0" arrivalPos="89.60" arrivalSpeed="15.07" duration="18.00" routeLength="194.90" waitingTime="0.00" waitingCount="0" stopTime="0.00" timeLoss="4.94" rerouteNo="0" devices="tripinfo_flow_we.21 routing_flow_we.21" vType="car" speedFactor="1.13" vaporized=""/>
    <tripinfo id="flow_we.22" depart="66.00" departLane="WN_0" departPos="5.10" departSpeed="0.00" departDelay="0.00" arrival="83.00" arrivalLane="NE_0" arrivalPos="89.60" arrivalSpeed="15.49" duration="17.00" routeLength="194.90" waitingTime="0.00" waitingCount="0" stopTime="0.00" timeLoss="4.19" rerouteNo="0" devices="tripinfo_flow_we.22 routing_flow_we.22" vType="car" speedFactor="1.18" vaporized=""/>
    <tripinfo id="flow_we.23" depart="69.00" departLane="WN_0" departPos="5.10" departSpeed="0.00" departDelay="0.00" arrival="85.00" arrivalLane="NE_0" arrivalPos="89.60" arrivalSpeed="15.00" duration="16.00" routeLength="194.90" waitingTime="0.00" waitingCount="0" stopTime="0.00" timeLoss="3.62" rerouteNo="0" devices="tripinfo_flow_we.23 routing_flow_we.23" vType="car" speedFactor="1.15" vaporized=""/>
    <tripinfo id="flow_we.24" depart="72.00" departLane="WN_0" departPos="5.10" departSpeed="0.00" departDelay="0.00" arrival="90.00" arrivalLane="NE_0" arrivalPos="89.60" arrivalSpeed="13.85" duration="18.00" routeLength="194.90" waitingTime="0.00" waitingCount="0" stopTime="0.00" timeLoss="3.51" rerouteNo="0" devices="tripinfo_flow_we.24 routing_flow_we.24" vType="car" speedFactor="1.01" vaporized=""/>
    <tripinfo id="flow_we.25" depart="75.00" departLane="WN_0" departPos="5.10" departSpeed="0.00" departDelay="0.00" arrival="93.00" arrivalLane="NE_0" arrivalPos="89.60" arrivalSpeed="13.01" duration="18.00" routeLength="194.90" waitingTime="0.00" waitingCount="0" stopTime="0.00" timeLoss="3.55" rerouteNo="0" devices="tripinfo_flow_we.25 routing_flow_we.25" vType="car" speedFactor="0.99" vaporized=""/>
    <tripinfo id="flow_we.26" depart="78.00" departLane="WN_0" departPos="5.10" departSpeed="0.00" departDelay="0.00" arrival="96.00" arrivalLane="NE_0" arrivalPos="89.60" arrivalSpeed="13.42" duration="18.00" routeLength="194.90" waitingTime="0.00" waitingCount="0" stopTime="0.00" timeLoss="3.50" rerouteNo="0" devices="tripinfo_flow_we.26 routing_flow_we.26" vType="car" speedFactor="1.02" vaporized=""/>
    <tripinfo id="flow_we.27" depart="81.00" departLane="WN_0" departPos="5.10" departSpeed="0.00" departDelay="0.00" arrival="100.00" arrivalLane="NE_0" arrivalPos="89.60" arrivalSpeed="12.93" duration="19.00" routeLength="194.90" waitingTime="0.00" waitingCount="0" stopTime="0.00" timeLoss="3.77" rerouteNo="0" devices="tripinfo_flow_we.27 routing_flow_we.27" vType="car" speedFactor="0.97" vaporized=""/>
    <tripinfo id="flow_we.28" depart="84.00" departLane="WN_0" departPos="5.10" departSpeed="0.00" departDelay="0.00" arrival="101.00" arrivalLane="NE_0" arrivalPos="89.60" arrivalSpeed="13.56" duration="17.00" routeLength="194.90" waitingTime="0.00" waitingCount="0" stopTime="0.00" timeLoss="4.22" rerouteNo="0" devices="tripinfo_flow_we.28 routing_flow_we.28" vType="car" speedFactor="1.10" vaporized=""/>
    <tripinfo id="flow_we.29" depart="87.00" departLane="WN_0" departPos="5.10" departSpeed="0.00" departDelay="0.00" arrival="106.00" arrivalLane="NE_0" arrivalPos="89.60" arrivalSpeed="12.00" duration="19.00" routeLength="194.90" waitingTime="0.00" waitingCount="0" stopTime="0.00" timeLoss="3.41" rerouteNo="0" devices="tripinfo_flow_we.29 routing_flow_we.29" vType="car" speedFactor="0.90" vaporized=""/>
    <tripinfo id="flow_we.30" depart="90.00" departLane="WN_0" departPos="5.10" departSpeed="0.00" departDelay="0.00" arrival="108.00" arrivalLane="NE_0" arrivalPos="89.60" arrivalSpeed="13.07" duration="18.00" routeLength="194.90" waitingTime="0.00" waitingCount="0" stopTime="0.00" timeLoss="4.08" rerouteNo="0" devices="tripinfo_flow_we.30 routing_flow_we.30" vType="car" speedFactor="1.03" vaporized=""/>
    <tripinfo id="flow_we.31" depart="93.00" departLane="WN_0" departPos="5.10" departSpeed="0.00" departDelay="0.00" arrival="110.00" arrivalLane="NE_0" arrivalPos="89.60" arrivalSpeed="15.13" duration="17.00" routeLength="194.90" waitingTime="0.00" waitingCount="0" stopTime="0.00" timeLoss="3.78" rerouteNo="0" devices="tripinfo_flow_we.31 routing_flow_we.31" vType="car" speedFactor="1.09" vaporized=""/>
    <tripinfo id="flow_we.32" depart="96.00" departLane="WN_0" departPos="5.10" departSpeed="0.00" departDelay="0.00" arrival="114.00" arrivalLane="NE_0" arrivalPos="89.60" arrivalSpeed="13.63" duration="18.00" routeLength="194.90" waitingTime="0.00" waitingCount="0" stopTime="0.00" timeLoss="3.77" rerouteNo="0" devices="tripinfo_flow_we.32 routing_flow_we.32" vType="car" speedFactor="1.04" vaporized=""/>
    <tripinfo id="flow_ns.5" depart="45.00" departLane="NN_0" departPos="5.10" departSpeed="0.00" departDelay="0.00" arrival="120.00" arrivalLane="NS_1" arrivalPos="89.60" arrivalSpeed="13.34" duration="75.00" routeLength="194.90" waitingTime="51.00" waitingCount="1" stopTime="0.00" timeLoss="61.08" rerouteNo="0" devices="tripinfo_flow_ns.5 routing_flow_ns.5" vType="car" speedFactor="1.01" vaporized=""/>
    <tripinfo id="flow_ns.4" depart="36.00" departLane="NN_0" departPos="5.10" departSpeed="0.00" departDelay="0.00" arrival="121.00" arrivalLane="NS_0" arrivalPos="89.60" arrivalSpeed="11.97" duration="85.00" routeLength="194.90" waitingTime="60.00" waitingCount="1" stopTime="0.00" timeLoss="69.73" rerouteNo="0" devices="tripinfo_flow_ns.4 routing_flow_ns.4" vType="car" speedFactor="0.94" vaporized=""/>
    <tripinfo id="flow_ns.7" depart="63.00" departLane="NN_0" departPos="5.10" departSpeed="0.00" departDelay="0.00" arrival="123.00" arrivalLane="NS_1" arrivalPos="89.60" arrivalSpeed="12.39" duration="60.00" routeLength="194.90" waitingTime="34.00" waitingCount="1" stopTime="0.00" timeLoss="44.55" rerouteNo="0" devices="tripinfo_flow_ns.7 routing_flow_ns.7" vType="car" speedFactor="0.93" vaporized=""/>
    <tripinfo id="flow_ns.6" depart="54.00" departLane="NN_0" departPos="5.10" departSpeed="0.00" departDelay="0.00" arrival="124.00" arrivalLane="NS_0" arrivalPos="89.60" arrivalSpeed="11.44" duration="70.00" routeLength="194.90" waitingTime="44.00" waitingCount="1" stopTime="0.00" timeLoss="53.26" rerouteNo="0" devices="tripinfo_flow_ns.6 routing_flow_ns.6" vType="car" speedFactor="0.87" vaporized=""/>
    <tripinfo id="flow_ns.9" depart="81.00" departLane="NN_0" departPos="5.10" departSpeed="0.00" departDelay="0.00" arrival="125.00" arrivalLane="NS_1" arrivalPos="89.60" arrivalSpeed="15.97" duration="44.00" routeLength="194.90" waitingTime="20.00" waitingCount="1" stopTime="0.00" timeLoss="31.31" rerouteNo="0" devices="tripinfo_flow_ns.9 routing_flow_ns.9" vType="car" speedFactor="1.18" vaporized=""/>
    <tripinfo id="flow_ns.8" depart="72.00" departLane="NN_0" departPos="5.10" departSpeed="0.00" departDelay="0.00" arrival="126.00" arrivalLane="NS_0" arrivalPos="89.60" arrivalSpeed="14.56" duration="54.00" routeLength="194.90" waitingTime="28.00" waitingCount="1" stopTime="0.00" timeLoss="41.20" rerouteNo="0" devices="tripinfo_flow_ns.8 routing_flow_ns.8" vType="car" speedFactor="1.17" vaporized=""/>
    <tripinfo id="flow_ns.10" depart="90.00" departLane="NN_0" departPos="5.10" departSpeed="0.00" departDelay="0.00" arrival="127.00" arrivalLane="NS_0" arrivalPos="89.60" arrivalSpeed="12.43" duration="37.00" routeLength="194.90" waitingTime="13.00" waitingCount="1" stopTime="0.00" timeLoss="22.25" rerouteNo="0" devices="tripinfo_flow_ns.10 routing_flow_ns.10" vType="car" speedFactor="0.96" vaporized=""/>
    <tripinfo id="flow_ns.11" depart="99.00" departLane="NN_0" departPos="5.10" departSpeed="0.00" departDelay="0.00" arrival="127.00" arrivalLane="NS_1" arrivalPos="89.60" arrivalSpeed="15.01" duration="28.00" routeLength="194.90" waitingTime="2.00" waitingCount="1" stopTime="0.00" timeLoss="14.16" rerouteNo="0" devices="tripinfo_flow_ns.11 routing_flow_ns.11" vType="car" speedFactor="1.09" vaporized=""/>
    <tripinfo id="flow_ns.12" depart="108.00" departLane="NN_0" departPos="5.10" departSpeed="0.00" departDelay="0.00" arrival="130.00" arrivalLane="NS_0" arrivalPos="89.60" arrivalSpeed="10.86" duration="22.00" routeLength="194.90" waitingTime="0.00" waitingCount="0" stopTime="0.00" timeLoss="4.76" rerouteNo="0" devices="tripinfo_flow_ns.12 routing_flow_ns.12" vType="car" speedFactor="0.85" vaporized=""/>
    <tripinfo id="flow_ns.13" depart="117.00" departLane="NN_0" departPos="5.10" departSpeed="0.00" departDelay="0.00" arrival="135.00" arrivalLane="NS_0" arrivalPos="89.60" arrivalSpeed="15.22" duration="18.00" routeLength="194.90" waitingTime="0.00" waitingCount="0" stopTime="0.00" timeLoss="4.52" rerouteNo="0" devices="tripinfo_flow_ns.13 routing_flow_ns.13" vType="car" speedFactor="1.10" vaporized=""/>
    <tripinfo id="flow_ns.14" depart="126.00" departLane="NN_0" departPos="5.10" departSpeed="0.00" departDelay="0.00" arrival="143.00" arrivalLane="NS_0" arrivalPos="89.60" arrivalSpeed="15.08" duration="17.00" routeLength="194.90" waitingTime="0.00" waitingCount="0" stopTime="0.00" timeLoss="4.28" rerouteNo="0" devices="tripinfo_flow_ns.14 routing_flow_ns.14" vType="car" speedFactor="1.14" vaporized=""/>
    <tripinfo id="flow_ns.15" depart="135.00" departLane="NN_0" departPos="5.10" departSpeed="0.00" departDelay="0.00" arrival="152.00" arrivalLane="NS_0" arrivalPos="89.60" arrivalSpeed="14.81" duration="17.00" routeLength="194.90" waitingTime="0.00" waitingCount="0" stopTime="0.00" timeLoss="3.71" rerouteNo="0" devices="tripinfo_flow_ns.15 routing_flow_ns.15" vType="car" speedFactor="1.12" vaporized=""/>
    <tripinfo id="flow_ns.16" depart="144.00" departLane="NN_0" departPos="5.10" departSpeed="0.00" departDelay="0.00" arrival="164.00" arrivalLane="NS_0" arrivalPos="89.60" arrivalSpeed="11.35" duration="20.00" routeLength="194.90" waitingTime="0.00" waitingCount="0" stopTime="0.00" timeLoss="3.54" rerouteNo="0" devices="tripinfo_flow_ns.16 routing_flow_ns.16" vType="car" speedFactor="0.88" vaporized=""/>
    <tripinfo id="flow_ns.17" depart="153.00" departLane="NN_0" departPos="5.10" departSpeed="0.00" departDelay="0.00" arrival="171.00" arrivalLane="NS_0" arrivalPos="89.60" arrivalSpeed="13.82" duration="18.00" routeLength="194.90" waitingTime="0.00" waitingCount="0" stopTime="0.00" timeLoss="3.38" rerouteNo="0" devices="tripinfo_flow_ns.17 routing_flow_ns.17" vType="car" speedFactor="1.02" vaporized=""/>
    <tripinfo id="flow_ns.18" depart="162.00" departLane="NN_0" departPos="5.10" departSpeed="0.00" departDelay="0.00" arrival="180.00" arrivalLane="NS_0" arrivalPos="89.60" arrivalSpeed="13.74" duration="18.00" routeLength="194.90" waitingTime="0.00" waitingCount="0" stopTime="0.00" timeLoss="4.14" rerouteNo="0" devices="tripinfo_flow_ns.18 routing_flow_ns.18" vType="car" speedFactor="1.06" vaporized=""/>
    <tripinfo id="flow_we.33" depart="99.00" departLane="WN_0" departPos="5.10" departSpeed="0.00" departDelay="0.00" arrival="190.00" arrivalLane="NE_0" arrivalPos="89.60" arrivalSpeed="14.10" duration="91.00" routeLength="194.90" waitingTime="66.00" waitingCount="1" stopTime="0.00" timeLoss="76.68" rerouteNo="0" devices="tripinfo_flow_we.33 routing_flow_we.33" vType="car" speedFactor="1.04" vaporized=""/>
    <tripinfo id="flow_we.34" depart="102.00" departLane="WN_0" departPos="5.10" departSpeed="0.00" departDelay="0.00" arrival="190.00" arrivalLane="NE_1" arrivalPos="89.60" arrivalSpeed="13.75" duration="88.00" routeLength="194.90" waitingTime="64.00" waitingCount="1" stopTime="0.00" timeLoss="73.08" rerouteNo="0" devices="tripinfo_flow_we.34 routing_flow_we.34" vType="car" speedFactor="1.00" vaporized=""/>
    <tripinfo id="ev_60" depart="121.00" departLane="EN_0" departPos="6.60" departSpeed="0.00" departDelay="0.00" arrival="191.00" arrivalLane="WN_1" arrivalPos="89.60" arrivalSpeed="16.57" duration="70.00" routeLength="287.67" waitingTime="46.00" waitingCount="1" stopTime="0.00" timeLoss="42.79" rerouteNo="1" devices="tripinfo_ev_60 routing_ev_60" vType="emergency_vehicle" speedFactor="1.00" vaporized=""/>
    <tripinfo id="flow_we.35" depart="105.00" departLane="WN_0" departPos="5.10" departSpeed="0.00" departDelay="0.00" arrival="193.00" arrivalLane="NE_0" arrivalPos="89.60" arrivalSpeed="11.49" duration="88.00" routeLength="194.90" waitingTime="64.00" waitingCount="1" stopTime="0.00" timeLoss="71.78" rerouteNo="0" devices="tripinfo_flow_we.35 routing_flow_we.35" vType="car" speedFactor="0.90" vaporized=""/>
    <tripinfo id="flow_we.36" depart="108.00" departLane="WN_0" departPos="5.10" departSpeed="0.00" departDelay="0.00" arrival="193.00" arrivalLane="NE_1" arrivalPos="89.60" arrivalSpeed="11.43" duration="85.00" routeLength="194.90" waitingTime="59.00" waitingCount="1" stopTime="0.00" timeLoss="68.36" rerouteNo="0" devices="tripinfo_flow_we.36 routing_flow_we.36" vType="car" speedFactor="0.88" vaporized=""/>
    <tripinfo id="flow_we.37" depart="111.00" departLane="WN_0" departPos="5.10" departSpeed="0.00" departDelay="0.00" arrival="195.00" arrivalLane="NE_0" arrivalPos="89.60" arrivalSpeed="11.34" duration="84.00" routeLength="194.90" waitingTime="58.00" waitingCount="1" stopTime="0.00" timeLoss="67.32" rerouteNo="0" devices="tripinfo_flow_we.37 routing_flow_we.37" vType="car" speedFactor="0.85" vaporized=""/>
    <tripinfo id="flow_we.38" depart="114.00" departLane="WN_0" departPos="5.10" departSpeed="0.00" departDelay="0.00" arrival="195.00" arrivalLane="NE_1" arrivalPos="89.60" arrivalSpeed="14.79" duration="81.00" routeLength="194.90" waitingTime="55.00" waitingCount="1" stopTime="0.00" timeLoss="68.12" rerouteNo="0" devices="tripinfo_flow_we.38 routing_flow_we.38" vType="car" speedFactor="1.17" vaporized=""/>
    <tripinfo id="flow_we.40" depart="120.00" departLane="WN_0" departPos="5.10" departSpeed="0.00" departDelay="0.00" arrival="196.00" arrivalLane="NE_1" arrivalPos="89.60" arrivalSpeed="12.68" duration="76.00" routeLength="194.90" waitingTime="50.00" waitingCount="1" stopTime="0.00" timeLoss="61.80" rerouteNo="0" devices="tripinfo_flow_we.40 routing_flow_we.40" vType="car" speedFactor="1.00" vaporized=""/>
    <tripinfo id="flow_we.39" depart="117.00" departLane="WN_0" departPos="5.10" departSpeed="0.00" departDelay="0.00" arrival="197.00" arrivalLane="NE_0" arrivalPos="89.60" arrivalSpeed="13.13" duration="80.00" routeLength="194.90" waitingTime="55.00" waitingCount="1" stopTime="0.00" timeLoss="65.72" rerouteNo="0" devices="tripinfo_flow_we.39 routing_flow_we.39" vType="car" speedFactor="1.02" vaporized=""/>
    <tripinfo id="flow_we.42" depart="126.00" departLane="WN_0" departPos="5.10" departSpeed="0.00" departDelay="0.00" arrival="198.00" arrivalLane="NE_1" arrivalPos="89.60" arrivalSpeed="12.13" duration="72.00" routeLength="194.90" waitingTime="47.00" waitingCount="1" stopTime="0.00" timeLoss="56.08" rerouteNo="0" devices="tripinfo_flow_we.42 routing_flow_we.42" vType="car" speedFactor="0.90" vaporized=""/>
    <tripinfo id="flow_we.41" depart="123.00" departLane="WN_0" departPos="5.10" departSpeed="0.00" departDelay="0.00" arrival="199.00" arrivalLane="NE_0" arrivalPos="89.60" arrivalSpeed="13.36" duration="76.00" routeLength="194.90" waitingTime="49.00" waitingCount="1" stopTime="0.00" timeLoss="61.09" rerouteNo="0" devices="tripinfo_flow_we.41 routing_flow_we.41" vType="car" speedFactor="1.00" vaporized=""/>
    <tripinfo id="flow_we.43" depart="129.00" departLane="WN_0" departPos="5.10" departSpeed="0.00" departDelay="0.00" arrival="200.00" arrivalLane="NE_0" arrivalPos="89.60" arrivalSpeed="13.93" duration="71.00" routeLength="194.90" waitingTime="46.00" waitingCount="1" stopTime="0.00" timeLoss="57.13" rerouteNo="0" devices="tripinfo_flow_we.43 routing_flow_we.43" vType="car" speedFactor="1.02" vaporized=""/>
    <tripinfo id="flow_we.45" depart="135.00" departLane="WN_0" departPos="5.10" departSpeed="0.00" departDelay="0.00" arrival="201.00" arrivalLane="NE_1" arrivalPos="89.60" arrivalSpeed="14.33" duration="66.00" routeLength="194.90" waitingTime="41.00" waitingCount="1" stopTime="0.00" timeLoss="52.47" rerouteNo="0" devices="tripinfo_flow_we.45 routing_flow_we.45" vType="car" speedFactor="1.08" vaporized=""/>
    <tripinfo id="flow_we.44" depart="132.00" departLane="WN_0" departPos="5.10" departSpeed="0.00" departDelay="0.00" arrival="202.00" arrivalLane="NE_0" arrivalPos="89.60" arrivalSpeed="12.96" duration="70.00" routeLength="194.90" waitingTime="44.00" waitingCount="1" stopTime="0.00" timeLoss="55.33" rerouteNo="0" devices="tripinfo_flow_we.44 routing_flow_we.44" vType="car" speedFactor="0.97" vaporized=""/>
    <tripinfo id="flow_we.46" depart="138.00" departLane="WN_0" departPos="5.10" departSpeed="0.00" departDelay="0.00" arrival="208.00" arrivalLane="NE_0" arrivalPos="89.60" arrivalSpeed="13.14" duration="70.00" routeLength="194.90" waitingTime="41.00" waitingCount="2" stopTime="0.00" timeLoss="56.13" rerouteNo="0" devices="tripinfo_flow_we.46 routing_flow_we.46" vType="car" speedFactor="1.02" vaporized=""/>
    <tripinfo id="flow_we.47" depart="141.00" departLane="WN_0" departPos="5.10" departSpeed="0.00" departDelay="0.00" arrival="209.00" arrivalLane="NE_1" arrivalPos="89.60" arrivalSpeed="12.99" duration="68.00" routeLength="194.90" waitingTime="38.00" waitingCount="2" stopTime="0.00" timeLoss="52.86" rerouteNo="0" devices="tripinfo_flow_we.47 routing_flow_we.47" vType="car" speedFactor="0.99" vaporized=""/>
    <tripinfo id="flow_we.48" depart="144.00" departLane="WN_0" departPos="5.10" departSpeed="0.00" departDelay="0.00" arrival="211.00" arrivalLane="NE_0" arrivalPos="89.60" arrivalSpeed="12.89" duration="67.00" routeLength="194.90" waitingTime="35.00" waitingCount="2" stopTime="0.00" timeLoss="51.44" rerouteNo="0" devices="tripinfo_flow_we.48 routing_flow_we.48" vType="car" speedFactor="0.94" vaporized=""/>
    <tripinfo id="flow_we.49" depart="147.00" departLane="WN_0" departPos="5.10" departSpeed="0.00" departDelay="0.00" arrival="211.00" arrivalLane="NE_1" arrivalPos="89.60" arrivalSpeed="12.47" duration="64.00" routeLength="194.90" waitingTime="35.00" waitingCount="2" stopTime="0.00" timeLoss="48.16" rerouteNo="0" devices="tripinfo_flow_we.49 routing_flow_we.49" vType="car" speedFactor="0.91" vaporized=""/>
    <tripinfo id="flow_we.50" depart="150.00" departLane="WN_0" departPos="5.10" departSpeed="0.00" departDelay="0.00" arrival="213.00" arrivalLane="NE_0" arrivalPos="89.60" arrivalSpeed="11.55" duration="63.00" routeLength="194.90" waitingTime="30.00" waitingCount="1" stopTime="0.00" timeLoss="47.65" rerouteNo="0" devices="tripinfo_flow_we.50 routing_flow_we.50" vType="car" speedFactor="0.91" vaporized=""/>