<?xml version="1.0" encoding="UTF-8"?>

<!-- generated on 2025-09-20 11:52:39 by Eclipse SUMO GUI Version 1.24.0
<sumoConfiguration xmlns:xsi="http://www.w3.org/2001/XMLSchema-instance" xsi:noNamespaceSchemaLocation="http://sumo.dlr.de/xsd/sumoConfiguration.xsd">

    <input>
        <net-file value="simulation/intersection.net.xml"/>
        <route-files value="simulation/intersection.rou.xml"/>
    </input>

    <output>
        <summary-output value="outputs/intersection_before_ai_summary.xml"/>
        <tripinfo-output value="outputs/intersection_before_ai_tripinfo.xml"/>
    </output>

    <time>
        <begin value="0"/>
    </time>

    <traci_server>
        <remote-port value="8813"/>
    </traci_server>

    <gui_only>
        <start value="true"/>
    </gui_only>

</sumoConfiguration>
-->

<tripinfos xmlns:xsi="http://www.w3.org/2001/XMLSchema-instance" xsi:noNamespaceSchemaLocation="http://sumo.dlr.de/xsd/tripinfo_file.xsd">
    <tripinfo id="flow_ns.0" depart="0.00" departLane="NN_0" departPos="5.10" departSpeed="0.00" departDelay="0.00" arrival="19.00" arrivalLane="NS_0" arrivalPos="89.60" arrivalSpeed="12.70" duration="19.00" routeLength="194.90" waitingTime="0.00" waitingCount="0" stopTime="0.00" timeLoss="3.52" rerouteNo="0" devices="tripinfo_flow_ns.0 routing_flow_ns.0" vType="car" speedFactor="0.94" vaporized=""/>
    <tripinfo id="flow_ns.1" depart="9.00" departLane="NN_0" departPos="5.10" departSpeed="0.00" departDelay="0.00" arrival="30.00" arrivalLane="NS_0" arrivalPos="89.60" arrivalSpeed="11.08" duration="21.00" routeLength="194.90" waitingTime="0.00" waitingCount="0" stopTime="0.00" timeLoss="3.58" rerouteNo="0" devices="tripinfo_flow_ns.1 routing_flow_ns.1" vType="car" speedFactor="0.83" vaporized=""/>
    <tripinfo id="flow_ns.2" depart="18.00" departLane="NN_0" departPos="5.10" departSpeed="0.00" departDelay="0.00" arrival="39.00" arrivalLane="NS_0" arrivalPos="89.60" arrivalSpeed="11.44" duration="21.00" routeLength="194.90" waitingTime="0.00" waitingCount="0" stopTime="0.00" timeLoss="3.72" rerouteNo="0" devices="tripinfo_flow_ns.2 routing_flow_ns.2" vType="car" speedFactor="0.86" vaporized=""/>
    <tripinfo id="flow_ns.3" depart="27.00" departLane="NN_0" departPos="5.10" departSpeed="0.00" departDelay="0.00" arrival="44.00" arrivalLane="NS_0" arrivalPos="89.60" arrivalSpeed="15.32" duration="17.00" routeLength="194.90" waitingTime="0.00" waitingCount="0" stopTime="0.00" timeLoss="3.81" rerouteNo="0" devices="tripinfo_flow_ns.3 routing_flow_ns.3" vType="car" speedFactor="1.12" vaporized=""/>
    <tripinfo id="flow_ns.4" depart="36.00" departLane="NN_0" departPos="5.10" departSpeed="0.00" departDelay="0.00" arrival="56.00" arrivalLane="NS_0" arrivalPos="89.60" arrivalSpeed="11.93" duration="20.00" routeLength="194.90" waitingTime="0.00" waitingCount="0" stopTime="0.00" timeLoss="4.24" rerouteNo="0" devices="tripinfo_flow_ns.4 routing_flow_ns.4" vType="car" speedFactor="0.94" vaporized=""/>
    <tripinfo id="flow_ns.5" depart="45.00" departLane="NN_0" departPos="5.10" departSpeed="0.00" departDelay="0.00" arrival="64.00" arrivalLane="NS_0" arrivalPos="89.60" arrivalSpeed="13.99" duration="19.00" routeLength="194.90" waitingTime="0.00" waitingCount="0" stopTime="0.00" timeLoss="4.21" rerouteNo="0" devices="tripinfo_flow_ns.5 routing_flow_ns.5" vType="car" speedFactor="1.01" vaporized=""/>
    <tripinfo id="flow_ns.6" depart="54.00" departLane="NN_0" departPos="5.10" departSpeed="0.00" departDelay="0.00" arrival="74.00" arrivalLane="NS_0" arrivalPos="89.60" arrivalSpeed="10.91" duration="20.00" routeLength="194.90" waitingTime="0.00" waitingCount="0" stopTime="0.00" timeLoss="3.69" rerouteNo="0" devices="tripinfo_flow_ns.6 routing_flow_ns.6" vType="car" speedFactor="0.87" vaporized=""/>
    <tripinfo id="flow_ns.7" depart="63.00" departLane="NN_0" departPos="5.10" departSpeed="0.00" departDelay="0.00" arrival="82.00" arrivalLane="NS_0" arrivalPos="89.60" arrivalSpeed="12.13" duration="19.00" routeLength="194.90" waitingTime="0.00" waitingCount="0" stopTime="0.00" timeLoss="3.18" rerouteNo="0" devices="tripinfo_flow_ns.7 routing_flow_ns.7" vType="car" speedFactor="0.93" vaporized=""/>
    <tripinfo id="flow_ns.8" depart="72.00" departLane="NN_0" departPos="5.10" departSpeed="0.00" departDelay="0.00" arrival="88.00" arrivalLane="NS_0" arrivalPos="89.60" arrivalSpeed="16.26" duration="16.00" routeLength="194.90" waitingTime="0.00" waitingCount="0" stopTime="0.00" timeLoss="3.48" rerouteNo="0" devices="tripinfo_flow_ns.8 routing_flow_ns.8" vType="car" speedFactor="1.17" vaporized=""/>
    <tripinfo id="flow_ns.9" depart="81.00" departLane="NN_0" departPos="5.10" departSpeed="0.00" departDelay="0.00" arrival="98.00" arrivalLane="NS_0" arrivalPos="89.60" arrivalSpeed="15.88" duration="17.00" routeLength="194.90" waitingTime="0.00" waitingCount="0" stopTime="0.00" timeLoss="4.60" rerouteNo="0" devices="tripinfo_flow_ns.9 routing_flow_ns.9" vType="car" speedFactor="1.18" vaporized=""/>
    <tripinfo id="flow_ns.10" depart="90.00" departLane="NN_0" departPos="5.10" departSpeed="0.00" departDelay="0.00" arrival="108.00" arrivalLane="NS_0" arrivalPos="89.60" arrivalSpeed="12.51" duration="18.00" routeLength="194.90" waitingTime="0.00" waitingCount="0" stopTime="0.00" timeLoss="3.20" rerouteNo="0" devices="tripinfo_flow_ns.10 routing_flow_ns.10" vType="car" speedFactor="0.96" vaporized=""/>
    <tripinfo id="flow_ns.11" depart="99.00" departLane="NN_0" departPos="5.10" departSpeed="0.00" departDelay="0.00" arrival="116.00" arrivalLane="NS_0" arrivalPos="89.60" arrivalSpeed="14.38" duration="17.00" routeLength="194.90" waitingTime="0.00" waitingCount="0" stopTime="0.00" timeLoss="4.07" rerouteNo="0" devices="tripinfo_flow_ns.11 routing_flow_ns.11" vType="car" speedFactor="1.09" vaporized=""/>
    <tripinfo id="flow_ns.12" depart="108.00" departLane="NN_0" departPos="5.10" departSpeed="0.00" departDelay="0.00" arrival="129.00" arrivalLane="NS_0" arrivalPos="89.60" arrivalSpeed="10.91" duration="21.00" routeLength="194.90" waitingTime="0.00" waitingCount="0" stopTime="0.00" timeLoss="3.81" rerouteNo="0" devices="tripinfo_flow_ns.12 routing_flow_ns.12" vType="car" speedFactor="0.85" vaporized=""/>
    <tripinfo id="flow_we.0" depart="0.00" departLane="WN_0" departPos="5.10" departSpeed="0.00" departDelay="0.00" arrival="133.00" arrivalLane="NE_0" arrivalPos="89.60" arrivalSpeed="14.57" duration="133.00" routeLength="194.90" waitingTime="109.00" waitingCount="1" stopTime="0.00" timeLoss="119.70" rerouteNo="0" devices="tripinfo_flow_we.0 routing_flow_we.0" vType="car" speedFactor="1.06" vaporized=""/>
    <tripinfo id="flow_we.1" depart="3.00" departLane="WN_0" departPos="5.10" departSpeed="0.00" departDelay="0.00" arrival="133.00" arrivalLane="NE_1" arrivalPos="89.60" arrivalSpeed="12.75" duration="130.00" routeLength="194.90" waitingTime="106.00" waitingCount="1" stopTime="0.00" timeLoss="115.95" rerouteNo="0" devices="tripinfo_flow_we.1 routing_flow_we.1" vType="car" speedFactor="1.01" vaporized=""/>
    <tripinfo id="flow_we.2" depart="6.00" departLane="WN_0" departPos="5.10" departSpeed="0.00" departDelay="0.00" arrival="135.00" arrivalLane="NE_0" arrivalPos="89.60" arrivalSpeed="13.95" duration="129.00" routeLength="194.90" waitingTime="105.00" waitingCount="1" stopTime="0.00" timeLoss="115.76" rerouteNo="0" devices="tripinfo_flow_we.2 routing_flow_we.2" vType="car" speedFactor="1.08" vaporized=""/>
    <tripinfo id="flow_we.3" depart="9.00" departLane="WN_0" departPos="5.10" departSpeed="0.00" departDelay="0.00" arrival="135.00" arrivalLane="NE_1" arrivalPos="89.60" arrivalSpeed="14.13" duration="126.00" routeLength="194.90" waitingTime="103.00" waitingCount="1" stopTime="0.00" timeLoss="112.14" rerouteNo="0" devices="tripinfo_flow_we.3 routing_flow_we.3" vType="car" speedFactor="1.03" vaporized=""/>
    <tripinfo id="flow_we.4" depart="12.00" departLane="WN_0" departPos="5.10" departSpeed="0.00" departDelay="0.00" arrival="137.00" arrivalLane="NE_0" arrivalPos="89.60" arrivalSpeed="14.46" duration="125.00" routeLength="194.90" waitingTime="100.00" waitingCount="1" stopTime="0.00" timeLoss="111.02" rerouteNo="0" devices="tripinfo_flow_we.4 routing_flow_we.4" vType="car" speedFactor="1.05" vaporized=""/>
    <tripinfo id="ev_0" depart="17.00" departLane="NW_0" departPos="6.60" departSpeed="0.00" departDelay="0.00" arrival="137.00" arrivalLane="NN_out_1" arrivalPos="89.60" arrivalSpeed="28.61" duration="120.00" routeLength="286.22" waitingTime="96.00" waitingCount="1" stopTime="0.00" timeLoss="97.18" rerouteNo="1" devices="tripinfo_ev_0 routing_ev_0" vType="emergency_vehicle" speedFactor="1.00" vaporized=""/>
    <tripinfo id="flow_we.5" depart="15.00" departLane="WN_0" departPos="5.10" departSpeed="0.00" departDelay="0.00" arrival="139.00" arrivalLane="NE_1" arrivalPos="89.60" arrivalSpeed="12.04" duration="124.00" routeLength="194.90" waitingTime="98.00" waitingCount="1" stopTime="0.00" timeLoss="107.26" rerouteNo="0" devices="tripinfo_flow_we.5 routing_flow_we.5" vType="car" speedFactor="0.89" vaporized=""/>
    <tripinfo id="flow_we.6" depart="18.00" departLane="WN_0" departPos="5.10" departSpeed="0.00" departDelay="0.00" arrival="140.00" arrivalLane="NE_0" arrivalPos="89.60" arrivalSpeed="12.62" duration="122.00" routeLength="194.90" waitingTime="97.00" waitingCount="1" stopTime="0.00" timeLoss="106.38" rerouteNo="0" devices="tripinfo_flow_we.6 routing_flow_we.6" vType="car" speedFactor="0.94" vaporized=""/>
    <tripinfo id="flow_we.7" depart="21.00" departLane="WN_0" departPos="5.10" departSpeed="0.00" departDelay="0.00" arrival="141.00" arrivalLane="NE_0" arrivalPos="89.60" arrivalSpeed="14.86" duration="120.00" routeLength="194.90" waitingTime="95.00" waitingCount="1" stopTime="0.00" timeLoss="107.13" rerouteNo="0" devices="tripinfo_flow_we.7 routing_flow_we.7" vType="car" speedFactor="1.09" vaporized=""/>
    <tripinfo id="flow_we.8" depart="24.00" departLane="WN_0" departPos="5.10" departSpeed="0.00" departDelay="0.00" arrival="141.00" arrivalLane="NE_1" arrivalPos="89.60" arrivalSpeed="13.45" duration="117.00" routeLength="194.90" waitingTime="92.00" waitingCount="1" stopTime="0.00" timeLoss="102.89" rerouteNo="0" devices="tripinfo_flow_we.8 routing_flow_we.8" vType="car" speedFactor="1.03" vaporized=""/>
    <tripinfo id="flow_we.9" depart="27.00" departLane="WN_0" departPos="5.10" departSpeed="0.00" departDelay="0.00" arrival="143.00" arrivalLane="NE_0" arrivalPos="89.60" arrivalSpeed="14.15" duration="116.00" routeLength="194.90" waitingTime="92.00" waitingCount="1" stopTime="0.00" timeLoss="102.48" rerouteNo="0" devices="tripinfo_flow_we.9 routing_flow_we.9" vType="car" speedFactor="1.05" vaporized=""/>
    <tripinfo id="flow_we.10" depart="30.00" departLane="WN_0" departPos="5.10" departSpeed="0.00" departDelay="0.00" arrival="144.00" arrivalLane="NE_1" arrivalPos="89.60" arrivalSpeed="12.77" duration="114.00" routeLength="194.90" waitingTime="86.00" waitingCount="1" stopTime="0.00" timeLoss="99.12" rerouteNo="0" devices="tripinfo_flow_we.10 routing_flow_we.10" vType="car" speedFactor="0.99" vaporized=""/>
    <tripinfo id="flow_we.11" depart="33.00" departLane="WN_0" departPos="5.10" departSpeed="0.00" departDelay="0.00" arrival="146.00" arrivalLane="NE_0" arrivalPos="89.60" arrivalSpeed="12.18" duration="113.00" routeLength="194.90" waitingTime="86.00" waitingCount="1" stopTime="0.00" timeLoss="97.33" rerouteNo="0" devices="tripinfo_flow_we.11 routing_flow_we.11" vType="car" speedFactor="0.93" vaporized=""/>
    <tripinfo id="flow_we.12" depart="37.00" departLane="WN_0" departPos="5.10" departSpeed="0.00" departDelay="1.00" arrival="146.00" arrivalLane="NE_1" arrivalPos="89.60" arrivalSpeed="11.60" duration="109.00" routeLength="194.90" waitingTime="83.00" waitingCount="1" stopTime="0.00" timeLoss="93.01" rerouteNo="0" devices="tripinfo_flow_we.12 routing_flow_we.12" vType="car" speedFactor="0.88" vaporized=""/>
    <tripinfo id="flow_we.13" depart="40.00" departLane="WN_0" departPos="5.10" departSpeed="0.00" departDelay="1.00" arrival="148.00" arrivalLane="NE_0" arrivalPos="89.60" arrivalSpeed="12.31" duration="108.00" routeLength="194.90" waitingTime="80.00" waitingCount="1" stopTime="0.00" timeLoss="92.49" rerouteNo="0" devices="tripinfo_flow_we.13 routing_flow_we.13" vType="car" speedFactor="0.94" vaporized=""/>
    <tripinfo id="flow_we.14" depart="43.00" departLane="WN_0" departPos="5.10" departSpeed="0.00" departDelay="1.00" arrival="148.00" arrivalLane="NE_1" arrivalPos="89.60" arrivalSpeed="14.83" duration="105.00" routeLength="194.90" waitingTime="78.00" waitingCount="1" stopTime="0.00" timeLoss="92.43" rerouteNo="0" devices="tripinfo_flow_we.14 routing_flow_we.14" vType="car" speedFactor="1.16" vaporized=""/>
    <tripinfo id="flow_we.15" depart="45.00" departLane="WN_0" departPos="5.10" departSpeed="0.00" departDelay="0.00" arrival="150.00" arrivalLane="NE_0" arrivalPos="89.60" arrivalSpeed="13.55" duration="105.00" routeLength="194.90" waitingTime="77.00" waitingCount="1" stopTime="0.00" timeLoss="90.37" rerouteNo="0" devices="tripinfo_flow_we.15 routing_flow_we.15" vType="car" speedFactor="1.02" vaporized=""/>
    <tripinfo id="flow_we.16" depart="48.00" departLane="WN_0" departPos="5.10" departSpeed="0.00" departDelay="0.00" arrival="150.00" arrivalLane="NE_1" arrivalPos="89.60" arrivalSpeed="13.38" duration="102.00" routeLength="194.90" waitingTime="75.00" waitingCount="1" stopTime="0.00" timeLoss="86.90" rerouteNo="0" devices="tripinfo_flow_we.16 routing_flow_we.16" vType="car" speedFactor="0.97" vaporized=""/>
    <tripinfo id="flow_we.17" depart="51.00" departLane="WN_0" departPos="5.10" departSpeed="0.00" departDelay="0.00" arrival="153.00" arrivalLane="NE_0" arrivalPos="89.60" arrivalSpeed="12.20" duration="102.00" routeLength="194.90" waitingTime="73.00" waitingCount="1" stopTime="0.00" timeLoss="85.43" rerouteNo="0" devices="tripinfo_flow_we.17 routing_flow_we.17" vType="car" speedFactor="0.89" vaporized=""/>
    <tripinfo id="flow_we.18" depart="54.00" departLane="WN_0" departPos="5.10" departSpeed="0.00" departDelay="0.00" arrival="153.00" arrivalLane="NE_1" arrivalPos="89.60" arrivalSpeed="10.27" duration="99.00" routeLength="194.90" waitingTime="72.00" waitingCount="1" stopTime="0.00" timeLoss="81.23" rerouteNo="0" devices="tripinfo_flow_we.18 routing_flow_we.18" vType="car" speedFactor="0.83" vaporized=""/>
    <tripinfo id="flow_we.19" depart="57.00" departLane="WN_0" departPos="5.10" departSpeed="0.00" departDelay="0.00" arrival="154.00" arrivalLane="NE_0" arrivalPos="89.60" arrivalSpeed="12.46" duration="97.00" routeLength="194.90" waitingTime="70.00" waitingCount="1" stopTime="0.00" timeLoss="81.65" rerouteNo="0" devices="tripinfo_flow_we.19 routing_flow_we.19" vType="car" speedFactor="0.92" vaporized=""/>
    <tripinfo id="flow_we.20" depart="123.00" departLane="WN_0" departPos="5.10" departSpeed="0.00" departDelay="63.00" arrival="154.00" arrivalLane="NE_1" arrivalPos="89.60" arrivalSpeed="12.46" duration="31.00" routeLength="194.90" waitingTime="4.00" waitingCount="1" stopTime="0.00" timeLoss="16.08" rerouteNo="0" devices="tripinfo_flow_we.20 routing_flow_we.20" vType="car" speedFactor="0.95" vaporized=""/>
    <tripinfo id="flow_we.21" depart="124.00" departLane="WN_0" departPos="5.10" departSpeed="0.00" departDelay="61.00" arrival="156.00" arrivalLane="NE_0" arrivalPos="89.60" arrivalSpeed="14.77" duration="32.00" routeLength="194.90" waitingTime="7.00" waitingCount="1" stopTime="0.00" timeLoss="19.18" rerouteNo="0" devices="tripinfo_flow_we.21 routing_flow_we.21" vType="car" speedFactor="1.13" vaporized=""/>
    <tripinfo id="flow_we.22" depart="139.00" departLane="WN_0" departPos="5.10" departSpeed="0.00" departDelay="73.00" arrival="158.00" arrivalLane="NE_0" arrivalPos="89.60" arrivalSpeed="15.49" duration="19.00" routeLength="194.90" waitingTime="0.00" waitingCount="0" stopTime="0.00" timeLoss="6.38" rerouteNo="0" devices="tripinfo_flow_we.22 routing_flow_we.22" vType="car" speedFactor="1.18" vaporized=""/>
    <tripinfo id="flow_we.23" depart="142.00" departLane="WN_0" departPos="5.10" departSpeed="0.00" departDelay="73.00" arrival="160.00" arrivalLane="NE_0" arrivalPos="89.60" arrivalSpeed="14.93" duration="18.00" routeLength="194.90" waitingTime="0.00" waitingCount="0" stopTime="0.00" timeLoss="4.92" rerouteNo="0" devices="tripinfo_flow_we.23 routing_flow_we.23" vType="car" speedFactor="1.15" vaporized=""/>
    <tripinfo id="flow_we.24" depart="145.00" departLane="WN_0" departPos="5.10" departSpeed="0.00" departDelay="73.00" arrival="163.00" arrivalLane="NE_0" arrivalPos="89.60" arrivalSpeed="13.10" duration="18.00" routeLength="194.90" waitingTime="0.00" waitingCount="0" stopTime="0.00" timeLoss="3.42" rerouteNo="0" devices="tripinfo_flow_we.24 routing_flow_we.24" vType="car" speedFactor="1.01" vaporized=""/>
    <tripinfo id="flow_we.25" depart="148.00" departLane="WN_0" departPos="5.10" departSpeed="0.00" departDelay="73.00" arrival="166.00" arrivalLane="NE_0" arrivalPos="89.60" arrivalSpeed="13.58" duration="18.00" routeLength="194.90" waitingTime="0.00" waitingCount="0" stopTime="0.00" timeLoss="3.53" rerouteNo="0" devices="tripinfo_flow_we.25 routing_flow_we.25" vType="car" speedFactor="0.99" vaporized=""/>
    <tripinfo id="flow_we.26" depart="151.00" departLane="WN_0" departPos="5.10" departSpeed="0.00" departDelay="73.00" arrival="169.00" arrivalLane="NE_0" arrivalPos="89.60" arrivalSpeed="13.55" duration="18.00" routeLength="194.90" waitingTime="0.00" waitingCount="0" stopTime="0.00" timeLoss="3.96" rerouteNo="0" devices="tripinfo_flow_we.26 routing_flow_we.26" vType="car" speedFactor="1.02" vaporized=""/>
    <tripinfo id="flow_we.27" depart="154.00" departLane="WN_0" departPos="5.10" departSpeed="0.00" departDelay="73.00" arrival="173.00" arrivalLane="NE_0" arrivalPos="89.60" arrivalSpeed="12.51" duration="19.00" routeLength="194.90" waitingTime="0.00" waitingCount="0" stopTime="0.00" timeLoss="3.95" rerouteNo="0" devices="tripinfo_flow_we.27 routing_flow_we.27" vType="car" speedFactor="0.97" vaporized=""/>
    <tripinfo id="flow_we.28" depart="157.00" departLane="WN_0" departPos="5.10" departSpeed="0.00" departDelay="73.00" arrival="175.00" arrivalLane="NE_0" arrivalPos="89.60" arrivalSpeed="14.05" duration="18.00" routeLength="194.90" waitingTime="0.00" waitingCount="0" stopTime="0.00" timeLoss="4.49" rerouteNo="0" devices="tripinfo_flow_we.28 routing_flow_we.28" vType="car" speedFactor="1.10" vaporized=""/>
    <tripinfo id="flow_we.29" depart="160.00" departLane="WN_0" departPos="5.10" departSpeed="0.00" departDelay="73.00" arrival="180.00" arrivalLane="NE_0" arrivalPos="89.60" arrivalSpeed="11.50" duration="20.00" routeLength="194.90" waitingTime="0.00" waitingCount="0" stopTime="0.00" timeLoss="4.00" rerouteNo="0" devices="tripinfo_flow_we.29 routing_flow_we.29" vType="car" speedFactor="0.90" vaporized=""/>
    <tripinfo id="flow_we.30" depart="163.00" departLane="WN_0" departPos="5.10" departSpeed="0.00" departDelay="73.00" arrival="182.00" arrivalLane="NE_0" arrivalPos="89.60" arrivalSpeed="13.81" duration="19.00" routeLength="194.90" waitingTime="0.00" waitingCount="0" stopTime="0.00" timeLoss="4.57" rerouteNo="0" devices="tripinfo_flow_we.30 routing_flow_we.30" vType="car" speedFactor="1.03" vaporized=""/>
    <tripinfo id="flow_we.31" depart="166.00" departLane="WN_0" departPos="5.10" departSpeed="0.00" departDelay="73.00" arrival="184.00" arrivalLane="NE_0" arrivalPos="89.60" arrivalSpeed="14.39" duration="18.00" routeLength="194.90" waitingTime="0.00" waitingCount="0" stopTime="0.00" timeLoss="4.32" rerouteNo="0" devices="tripinfo_flow_we.31 routing_flow_we.31" vType="car" speedFactor="1.09" vaporized=""/>
    <tripinfo id="flow_we.32" depart="169.00" departLane="WN_0" departPos="5.10" departSpeed="0.00" departDelay="73.00" arrival="186.00" arrivalLane="NE_0" arrivalPos="89.60" arrivalSpeed="13.94" duration="17.00" routeLength="194.90" waitingTime="0.00" waitingCount="0" stopTime="0.00" timeLoss="3.41" rerouteNo="0" devices="tripinfo_flow_we.32 routing_flow_we.32" vType="car" speedFactor="1.04" vaporized=""/>
    <tripinfo id="flow_we.33" depart="172.00" departLane="WN_0" departPos="5.10" departSpeed="0.00" departDelay="73.00" arrival="189.00" arrivalLane="NE_0" arrivalPos="89.60" arrivalSpeed="13.22" duration="17.00" routeLength="194.90" waitingTime="0.00" waitingCount="0" stopTime="0.00" timeLoss="3.28" rerouteNo="0" devices="tripinfo_flow_we.33 routing_flow_we.33" vType="car" speedFactor="1.04" vaporized=""/>
    <tripinfo id="flow_we.34" depart="174.00" departLane="WN_0" departPos="5.10" departSpeed="0.00" departDelay="72.00" arrival="193.00" arrivalLane="NE_0" arrivalPos="89.60" arrivalSpeed="13.66" duration="19.00" routeLength="194.90" waitingTime="0.00" waitingCount="0" stopTime="0.00" timeLoss="4.30" rerouteNo="0" devices="tripinfo_flow_we.34 routing_flow_we.34" vType="car" speedFactor="1.00" vaporized=""/>
    <tripinfo id="flow_we.35" depart="177.00" departLane="WN_0" departPos="5.10" departSpeed="0.00" departDelay="72.00" arrival="198.00" arrivalLane="NE_0" arrivalPos="89.60" arrivalSpeed="11.60" duration="21.00" routeLength="194.90" waitingTime="1.00" waitingCount="1" stopTime="0.00" timeLoss="4.72" rerouteNo="0" devices="tripinfo_flow_we.35 routing_flow_we.35" vType="car" speedFactor="0.90" vaporized=""/>
    <tripinfo id="flow_we.36" depart="181.00" departLane="WN_0" departPos="5.10" departSpeed="0.00" departDelay="73.00" arrival="201.00" arrivalLane="NE_0" arrivalPos="89.60" arrivalSpeed="11.43" duration="20.00" routeLength="194.90" waitingTime="0.00" waitingCount="0" stopTime="0.00" timeLoss="3.58" rerouteNo="0" devices="tripinfo_flow_we.36 routing_flow_we.36" vType="car" speedFactor="0.88" vaporized=""/>
    <tripinfo id="flow_we.37" depart="184.00" departLane="WN_0" departPos="5.10" departSpeed="0.00" departDelay="73.00" arrival="204.00" arrivalLane="NE_0" arrivalPos="89.60" arrivalSpeed="11.22" duration="20.00" routeLength="194.90" waitingTime="0.00" waitingCount="0" stopTime="0.00" timeLoss="3.22" rerouteNo="0" devices="tripinfo_flow_we.37 routing_flow_we.37" vType="car" speedFactor="0.85" vaporized=""/>
    <tripinfo id="flow_we.38" depart="187.00" departLane="WN_0" departPos="5.10" departSpeed="0.00" departDelay="73.00" arrival="206.00" arrivalLane="NE_0" arrivalPos="89.60" arrivalSpeed="14.90" duration="19.00" routeLength="194.90" waitingTime="0.00" waitingCount="0" stopTime="0.00" timeLoss="6.34" rerouteNo="0" devices="tripinfo_flow_we.38 routing_flow_we.38" vType="car" speedFactor="1.17" vaporized=""/>
    <tripinfo id="flow_we.39" depart="190.00" departLane="WN_0" departPos="5.10" departSpeed="0.00" departDelay="73.00" arrival="208.00" arrivalLane="NE_0" arrivalPos="89.60" arrivalSpeed="13.59" duration="18.00" routeLength="194.90" waitingTime="0.00" waitingCount="0" stopTime="0.00" timeLoss="3.74" rerouteNo="0" devices="tripinfo_flow_we.39 routing_flow_we.39" vType="car" speedFactor="1.02" vaporized=""/>
    <tripinfo id="flow_we.40" depart="193.00" departLane="WN_0" departPos="5.10" departSpeed="0.00" departDelay="73.00" arrival="211.00" arrivalLane="NE_0" arrivalPos="89.60" arrivalSpeed="13.61" duration="18.00" routeLength="194.90" waitingTime="0.00" waitingCount="0" stopTime="0.00" timeLoss="3.91" rerouteNo="0" devices="tripinfo_flow_we.40 routing_flow_we.40" vType="car" speedFactor="1.00" vaporized=""/>
    <tripinfo id="flow_we.41" depart="196.00" departLane="WN_0" departPos="5.10" departSpeed="0.00" departDelay="73.00" arrival="214.00" arrivalLane="NE_0" arrivalPos="89.60" arrivalSpeed="13.58" duration="18.00" routeLength="194.90" waitingTime="0.00" waitingCount="0" stopTime="0.00" timeLoss="3.72" rerouteNo="0" devices="tripinfo_flow_we.41 routing_flow_we.41" vType="car" speedFactor="1.00" vaporized=""/>
    <tripinfo id="flow_we.42" depart="199.00" departLane="WN_0" departPos="5.10" departSpeed="0.00" departDelay="73.00" arrival="218.00" arrivalLane="NE_0" arrivalPos="89.60" arrivalSpeed="12.12" duration="19.00" routeLength="194.90" waitingTime="0.00" waitingCount="0" stopTime="0.00" timeLoss="3.23" rerouteNo="0" devices="tripinfo_flow_we.42 routing_flow_we.42" vType="car" speedFactor="0.90" vaporized=""/>
    <tripinfo id="flow_we.43" depart="202.00" departLane="WN_0" departPos="5.10" departSpeed="0.00" departDelay="73.00" arrival="220.00" arrivalLane="NE_0" arrivalPos="89.60" arrivalSpeed="14.01" duration="18.00" routeLength="194.90" waitingTime="0.00" waitingCount="0" stopTime="0.00" timeLoss="3.78" rerouteNo="0" devices="tripinfo_flow_we.43 routing_flow_we.43" vType="car" speedFactor="1.02" vaporized=""/>
    <tripinfo id="flow_we.44" depart="205.00" departLane="WN_0" departPos="5.10" departSpeed="0.00" departDelay="73.00" arrival="223.00" arrivalLane="NE_0" arrivalPos="89.60" arrivalSpeed="12.18" duration="18.00" routeLength="194.90" waitingTime="0.00" waitingCount="0" stopTime="0.00" timeLoss="3.38" rerouteNo="0" devices="tripinfo_flow_we.44 routing_flow_we.44" vType="car" speedFactor="0.97" vaporized=""/>
    <tripinfo id="flow_we.45" depart="208.00" departLane="WN_0" departPos="5.10" departSpeed="0.00" departDelay="73.00" arrival="225.00" arrivalLane="NE_0" arrivalPos="89.60" arrivalSpeed="14.12" duration="17.00" routeLength="194.90" waitingTime="0.00" waitingCount="0" stopTime="0.00" timeLoss="3.52" rerouteNo="0" devices="tripinfo_flow_we.45 routing_flow_we.45" vType="car" speedFactor="1.08" vaporized=""/>
    <tripinfo id="flow_we.46" depart="211.00" departLane="WN_0" departPos="5.10" departSpeed="0.00" departDelay="73.00" arrival="229.00" arrivalLane="NE_0" arrivalPos="89.60" arrivalSpeed="13.45" duration="18.00" routeLength="194.90" waitingTime="0.00" waitingCount="0" stopTime="0.00" timeLoss="3.61" rerouteNo="0" devices="tripinfo_flow_we.46 routing_flow_we.46" vType="car" speedFactor="1.02" vaporized=""/>
    <tripinfo id="flow_we.47" depart="214.00" departLane="WN_0" departPos="5.10" departSpeed="0.00" departDelay="73.00" arrival="232.00" arrivalLane="NE_0" arrivalPos="89.60" arrivalSpeed="12.57" duration="18.00" routeLength="194.90" waitingTime="0.00" waitingCount="0" stopTime="0.00" timeLoss="3.58" rerouteNo="0" devices="tripinfo_flow_we.47 routing_flow_we.47" vType="car" speedFactor="0.99" vaporized=""/>
    <tripinfo id="flow_we.48" depart="217.00" departLane="WN_0" departPos="5.10" departSpeed="0.00" departDelay="73.00" arrival="236.00" arrivalLane="NE_0" arrivalPos="89.60" arrivalSpeed="12.58" duration="19.00" routeLength="194.90" waitingTime="0.00" waitingCount="0" stopTime="0.00" timeLoss="3.56" rerouteNo="0" devices="tripinfo_flow_we.48 routing_flow_we.48" vType="car" speedFactor="0.94" vaporized=""/>
    <tripinfo id="flow_we.49" depart="220.00" departLane="WN_0" departPos="5.10" departSpeed="0.00" departDelay="73.00" arrival="239.00" arrivalLane="NE_0" arrivalPos="89.60" arrivalSpeed="11.46" duration="19.00" routeLength="194.90" waitingTime="0.00" waitingCount="0" stopTime="0.00" timeLoss="3.50" rerouteNo="0" devices="tripinfo_flow_we.49 routing_flow_we.49" vType="car" speedFactor="0.91" vaporized=""/>
    <tripinfo id="flow_we.50" depart="223.00" departLane="WN_0" departPos="5.10" departSpeed="0.00" departDelay="73.00" arrival="242.00" arrivalLane="NE_0" arrivalPos="89.60" arrivalSpeed="12.18" duration="19.00" routeLength="194.90" waitingTime="0.00" waitingCount="0" stopTime="0.00" timeLoss="3.26" rerouteNo="0" devices="tripinfo_flow_we.50 routing_flow_we.50" vType="car" speedFactor="0.91" vaporized=""/>
    <tripinfo id="flow_we.51" depart="226.00" departLane="WN_0" departPos="5.10" departSpeed="0.00" departDelay="73.00" arrival="244.00" arrivalLane="NE_0" arrivalPos="89.60" arrivalSpeed="14.23" duration="18.00" routeLength="194.90" waitingTime="0.00" waitingCount="0" stopTime="0.00" timeLoss="3.90" rerouteNo="0" devices="tripinfo_flow_we.51 routing_flow_we.51" vType="car" speedFactor="1.04" vaporized=""/>
    <tripinfo id="flow_we.52" depart="229.00" departLane="WN_0" departPos="5.10" departSpeed="0.00" departDelay="73.00" arrival="247.00" arrivalLane="NE_0" arrivalPos="89.60" arrivalSpeed="13.26" duration="18.00" routeLength="194.90" waitingTime="0.00" waitingCount="0" stopTime="0.00" timeLoss="3.77" rerouteNo="0" devices="tripinfo_flow_we.52 routing_flow_we.52" vType="car" speedFactor="1.02" vaporized=""/>
    <tripinfo id="flow_we.53" depart="232.00" departLane="WN_0" departPos="5.10" departSpeed="0.00" departDelay="73.00" arrival="251.00" arrivalLane="NE_0" arrivalPos="89.60" arrivalSpeed="13.51" duration="19.00" routeLength="194.90" waitingTime="0.00" waitingCount="0" stopTime="0.00" timeLoss="3.80" rerouteNo="0" devices="tripinfo_flow_we.53 routing_flow_we.53" vType="car" speedFactor="0.97" vaporized=""/>
    <tripinfo id="flow_ns.13" depart="117.00" departLane="NN_0" departPos="5.10" departSpeed="0.00" departDelay="0.00" arrival="256.00" arrivalLane="NS_0" arrivalPos="89.60" arrivalSpeed="14.61" duration="139.00" routeLength="194.90" waitingTime="116.00" waitingCount="1" stopTime="0.00" timeLoss="125.97" rerouteNo="0" devices="tripinfo_flow_ns.13 routing_flow_ns.13" vType="car" speedFactor="1.10" vaporized=""/>
    <tripinfo id="flow_ns.14" depart="126.00" departLane="NN_0" departPos="5.10" departSpeed="0.00" departDelay="0.00" arrival="256.00" arrivalLane="NS_1" arrivalPos="89.60" arrivalSpeed="15.01" duration="130.00" routeLength="194.90" waitingTime="107.00" waitingCount="1" stopTime="0.00" timeLoss="117.13" rerouteNo="0" devices="tripinfo_flow_ns.14 routing_flow_ns.14" vType="car" speedFactor="1.14" vaporized=""/>