<?xml version="1.0" encoding="UTF-8"?>

<!-- generated on 2025-09-21 07:27:56 by Eclipse SUMO GUI Version 1.24.0
<sumoConfiguration xmlns:xsi="http://www.w3.org/2001/XMLSchema-instance" xsi:noNamespaceSchemaLocation="http://sumo.dlr.de/xsd/sumoConfiguration.xsd">

    <input>
        <net-file value="../Odisha_Rasulgarh_Sqare/osm.net.xml.gz"/>
        <route-files value="../Odisha_Rasulgarh_Sqare/osm.passenger.trips.xml"/>
        <additional-files value="../Odisha_Rasulgarh_Sqare/osm.poly.xml.gz,../Odisha_Rasulgarh_Sqare/output.add.xml"/>
    </input>

    <output>
        <summary-output value="outputs/odisha_before_ai_summary.xml"/>
        <tripinfo-output value="outputs/odisha_before_ai_tripinfo.xml"/>
        <statistic-output value="../Odisha_Rasulgarh_Sqare/stats.xml"/>
    </output>

    <processing>
        <ignore-route-errors value="true"/>
        <tls.actuated.jam-threshold value="30"/>
    </processing>

    <routing>
        <device.rerouting.adaptation-steps value="18"/>
        <device.rerouting.adaptation-interval value="10"/>
    </routing>

    <report>
        <verbose value="true"/>
        <duration-log.statistics value="true"/>
        <no-step-log value="true"/>
    </report>

    <traci_server>
        <remote-port value="8813"/>
    </traci_server>

    <gui_only>
        <gui-settings-file value="../Odisha_Rasulgarh_Sqare/osm.view.xml"/>
        <start value="true"/>
    </gui_only>

</sumoConfiguration>
-->

<tripinfos xmlns:xsi="http://www.w3.org/2001/XMLSchema-instance" xsi:noNamespaceSchemaLocation="http://sumo.dlr.de/xsd/tripinfo_file.xsd">
    <tripinfo id="veh11" depart="16.00" departLane="874586795_0" departPos="5.10" departSpeed="14.26" departDelay="0.85" arrival="86.00" arrivalLane="-874520137#6_0" arrivalPos="51.75" arrivalSpeed="14.16" duration="70.00" routeLength="904.85" waitingTime="0.00" waitingCount="0" stopTime="0.00" timeLoss="13.18" rerouteNo="1" devices="tripinfo_veh11 routing_veh11" vType="veh_passenger" speedFactor="1.03" vaporized=""/>
    <tripinfo id="veh2" depart="3.00" departLane="368392224#3_0" departPos="5.10" departSpeed="0.00" departDelay="0.25" arrival="105.00" arrivalLane="368708839#0_0" arrivalPos="35.64" arrivalSpeed="13.40" duration="102.00" routeLength="1155.09" waitingTime="0.00" waitingCount="0" stopTime="0.00" timeLoss="22.71" rerouteNo="1" devices="tripinfo_veh2 routing_veh2" vType="veh_passenger" speedFactor="1.01" vaporized=""/>
    <tripinfo id="veh42" depart="58.00" departLane="-1089496850#1_0" departPos="2.50" departSpeed="0.00" departDelay="0.17" arrival="110.00" arrivalLane="478775467_0" arrivalPos="160.97" arrivalSpeed="14.14" duration="52.00" routeLength="552.86" waitingTime="0.00" waitingCount="0" stopTime="0.00" timeLoss="15.83" rerouteNo="1" devices="tripinfo_veh42 routing_veh42" vType="veh_passenger" speedFactor="1.09" vaporized=""/>
    <tripinfo id="veh37" depart="51.00" departLane="-26755845#1_0" departPos="5.10" departSpeed="0.00" departDelay="0.06" arrival="111.00" arrivalLane="-26754330#3_0" arrivalPos="44.93" arrivalSpeed="15.11" duration="60.00" routeLength="522.60" waitingTime="4.00" waitingCount="1" stopTime="0.00" timeLoss="25.98" rerouteNo="1" devices="tripinfo_veh37 routing_veh37" vType="veh_passenger" speedFactor="1.18" vaporized=""/>
    <tripinfo id="veh15" depart="21.00" departLane="478800025#1_0" departPos="5.10" departSpeed="0.00" departDelay="0.35" arrival="120.00" arrivalLane="368392243_0" arrivalPos="116.45" arrivalSpeed="11.97" duration="99.00" routeLength="1377.08" waitingTime="0.00" waitingCount="0" stopTime="0.00" timeLoss="13.63" rerouteNo="1" devices="tripinfo_veh15 routing_veh15" vType="veh_passenger" speedFactor="0.93" vaporized=""/>
    <tripinfo id="veh19" depart="27.00" departLane="-26755534#2_0" departPos="5.10" departSpeed="0.00" departDelay="0.84" arrival="121.00" arrivalLane="-478069216#0_0" arrivalPos="273.17" arrivalSpeed="15.23" duration="94.00" routeLength="1317.98" waitingTime="0.00" waitingCount="0" stopTime="0.00" timeLoss="10.64" rerouteNo="1" devices="tripinfo_veh19 routing_veh19" vType="veh_passenger" speedFactor="1.16" vaporized=""/>
    <tripinfo id="veh18" depart="25.00" departLane="-368708801#1_0" departPos="5.10" departSpeed="0.00" departDelay="0.22" arrival="135.00" arrivalLane="-868990994#0_0" arrivalPos="49.77" arrivalSpeed="11.74" duration="110.00" routeLength="1662.38" waitingTime="0.00" waitingCount="0" stopTime="0.00" timeLoss="16.30" rerouteNo="1" devices="tripinfo_veh18 routing_veh18" vType="veh_passenger" speedFactor="0.94" vaporized=""/>
    <tripinfo id="veh51" depart="71.00" departLane="368708949#0_0" departPos="5.10" departSpeed="16.24" departDelay="0.78" arrival="138.00" arrivalLane="292410140#3_0" arrivalPos="0.20" arrivalSpeed="32.05" duration="67.00" routeLength="927.38" waitingTime="0.00" waitingCount="0" stopTime="0.00" timeLoss="14.58" rerouteNo="1" devices="tripinfo_veh51 routing_veh51" vType="veh_passenger" speedFactor="1.17" vaporized=""/>
    <tripinfo id="veh12" depart="17.00" departLane="703274422_0" departPos="5.10" departSpeed="0.00" departDelay="0.48" arrival="148.00" arrivalLane="368392226#1_0" arrivalPos="33.05" arrivalSpeed="13.91" duration="131.00" routeLength="968.45" waitingTime="30.00" waitingCount="2" stopTime="0.00" timeLoss="63.38" rerouteNo="1" devices="tripinfo_veh12 routing_veh12" vType="veh_passenger" speedFactor="1.05" vaporized=""/>
    <tripinfo id="veh48" depart="67.00" departLane="-478775721_0" departPos="5.10" departSpeed="12.18" departDelay="0.91" arrival="149.00" arrivalLane="368708782_0" arrivalPos="51.23" arrivalSpeed="12.17" duration="82.00" routeLength="926.80" waitingTime="0.00" waitingCount="0" stopTime="0.00" timeLoss="19.58" rerouteNo="1" devices="tripinfo_veh48 routing_veh48" vType="veh_passenger" speedFactor="0.88" vaporized=""/>
    <tripinfo id="veh21" depart="29.00" departLane="26755549_0" departPos="5.10" departSpeed="28.06" departDelay="0.09" arrival="153.00" arrivalLane="-874592587#0_0" arrivalPos="40.52" arrivalSpeed="13.15" duration="124.00" routeLength="2424.76" waitingTime="0.00" waitingCount="0" stopTime="0.00" timeLoss="18.21" rerouteNo="1" devices="tripinfo_veh21 routing_veh21" vType="veh_passenger" speedFactor="1.01" vaporized=""/>
    <tripinfo id="veh29" depart="40.00" departLane="-368708785_0" departPos="5.10" departSpeed="12.94" departDelay="0.07" arrival="154.00" arrivalLane="874586785_0" arrivalPos="81.79" arrivalSpeed="12.01" duration="114.00" routeLength="1928.13" waitingTime="0.00" waitingCount="0" stopTime="0.00" timeLoss="17.54" rerouteNo="1" devices="tripinfo_veh29 routing_veh29" vType="veh_passenger" speedFactor="0.93" vaporized=""/>
    <tripinfo id="veh0" depart="0.00" departLane="26755582#1_0" departPos="5.10" departSpeed="0.00" departDelay="0.00" arrival="169.00" arrivalLane="-1234980578#1_0" arrivalPos="44.02" arrivalSpeed="14.38" duration="169.00" routeLength="3103.38" waitingTime="0.00" waitingCount="0" stopTime="0.00" timeLoss="31.68" rerouteNo="1" devices="tripinfo_veh0 routing_veh0" vType="veh_passenger" speedFactor="1.06" vaporized=""/>
    <tripinfo id="veh43" depart="60.00" departLane="368101946#17_0" departPos="5.10" departSpeed="0.00" departDelay="0.80" arrival="169.00" arrivalLane="368101946#0_0" arrivalPos="35.15" arrivalSpeed="12.40" duration="109.00" routeLength="1756.20" waitingTime="0.00" waitingCount="0" stopTime="0.00" timeLoss="27.02" rerouteNo="1" devices="tripinfo_veh43 routing_veh43" vType="veh_passenger" speedFactor="1.04" vaporized=""/>
    <tripinfo id="veh69" depart="95.00" departLane="-368708801#6_0" departPos="5.10" departSpeed="0.00" departDelay="0.00" arrival="169.00" arrivalLane="874572881#1_0" arrivalPos="106.40" arrivalSpeed="13.87" duration="74.00" routeLength="1193.67" waitingTime="0.00" waitingCount="0" stopTime="0.00" timeLoss="14.03" rerouteNo="1" devices="tripinfo_veh69 routing_veh69" vType="veh_passenger" speedFactor="1.02" vaporized=""/>
    <tripinfo id="veh68" depart="94.00" departLane="-368708807_0" departPos="5.10" departSpeed="14.45" departDelay="0.38" arrival="170.00" arrivalLane="-464263626#0_0" arrivalPos="39.40" arrivalSpeed="14.25" duration="76.00" routeLength="1127.69" waitingTime="0.00" waitingCount="0" stopTime="0.00" timeLoss="10.92" rerouteNo="1" devices="tripinfo_veh68 routing_veh68" vType="veh_passenger" speedFactor="1.04" vaporized=""/>
    <tripinfo id="veh7" depart="10.00" departLane="-368708792#4_0" departPos="5.10" departSpeed="12.31" departDelay="0.36" arrival="173.00" arrivalLane="368392210#2_0" arrivalPos="8.97" arrivalSpeed="11.80" duration="163.00" routeLength="2301.47" waitingTime="0.00" waitingCount="0" stopTime="0.00" timeLoss="22.35" rerouteNo="1" devices="tripinfo_veh7 routing_veh7" vType="veh_passenger" speedFactor="0.89" vaporized=""/>
    <tripinfo id="veh113" depart="156.00" departLane="880027177#5_0" departPos="5.10" departSpeed="0.00" departDelay="0.42" arrival="175.00" arrivalLane="880027177#7_0" arrivalPos="173.46" arrivalSpeed="21.57" duration="19.00" routeLength="283.61" waitingTime="0.00" waitingCount="0" stopTime="0.00" timeLoss="5.67" rerouteNo="0" devices="tripinfo_veh113 routing_veh113" vType="veh_passenger" speedFactor="1.01" vaporized=""/>
    <tripinfo id="veh10" depart="14.00" departLane="-703796182_0" departPos="5.10" departSpeed="15.15" departDelay="0.23" arrival="176.00" arrivalLane="-368392193#5_0" arrivalPos="26.91" arrivalSpeed="10.46" duration="162.00" routeLength="2461.43" waitingTime="0.00" waitingCount="0" stopTime="0.00" timeLoss="41.58" rerouteNo="1" devices="tripinfo_veh10 routing_veh10" vType="veh_passenger" speedFactor="1.09" vaporized=""/>
    <tripinfo id="veh26" depart="36.00" departLane="1208986535#1_0" departPos="5.10" departSpeed="0.00" departDelay="0.20" arrival="178.00" arrivalLane="40016878#10_0" arrivalPos="244.51" arrivalSpeed="24.76" duration="142.00" routeLength="2782.73" waitingTime="0.00" waitingCount="0" stopTime="0.00" timeLoss="18.33" rerouteNo="1" devices="tripinfo_veh26 routing_veh26" vType="veh_passenger" speedFactor="0.92" vaporized=""/>
    <tripinfo id="veh57" depart="79.00" departLane="-26755650#0_0" departPos="5.10" departSpeed="0.00" departDelay="0.52" arrival="178.00" arrivalLane="26754758#1_0" arrivalPos="52.81" arrivalSpeed="15.39" duration="99.00" routeLength="1227.00" waitingTime="0.00" waitingCount="0" stopTime="0.00" timeLoss="18.64" rerouteNo="1" devices="tripinfo_veh57 routing_veh57" vType="veh_passenger" speedFactor="1.14" vaporized=""/>
    <tripinfo id="veh28" depart="39.00" departLane="-478800025#1_0" departPos="5.10" departSpeed="0.00" departDelay="0.45" arrival="182.00" arrivalLane="-593581362#4_0" arrivalPos="10.59" arrivalSpeed="12.03" duration="143.00" routeLength="1750.83" waitingTime="4.00" waitingCount="1" stopTime="0.00" timeLoss="48.70" rerouteNo="1" devices="tripinfo_veh28 routing_veh28" vType="veh_passenger" speedFactor="1.13" vaporized=""/>
    <tripinfo id="veh59" depart="82.00" departLane="368708791#5_0" departPos="5.10" departSpeed="0.00" departDelay="0.77" arrival="182.00" arrivalLane="-368392151#0_0" arrivalPos="27.12" arrivalSpeed="11.20" duration="100.00" routeLength="1265.95" waitingTime="0.00" waitingCount="0" stopTime="0.00" timeLoss="19.71" rerouteNo="1" devices="tripinfo_veh59 routing_veh59" vType="veh_passenger" speedFactor="0.97" vaporized=""/>
    <tripinfo id="veh53" depart="73.00" departLane="-1133810440#1_0" departPos="5.10" departSpeed="9.76" departDelay="0.03" arrival="184.00" arrivalLane="874582734_0" arrivalPos="58.43" arrivalSpeed="13.97" duration="111.00" routeLength="1344.45" waitingTime="2.00" waitingCount="1" stopTime="0.00" timeLoss="29.36" rerouteNo="1" devices="tripinfo_veh53 routing_veh53" vType="veh_passenger" speedFactor="1.10" vaporized=""/>
    <tripinfo id="veh23" depart="32.00" departLane="-368392215_0" departPos="5.10" departSpeed="12.36" departDelay="0.33" arrival="185.00" arrivalLane="478775712_0" arrivalPos="39.31" arrivalSpeed="11.59" duration="153.00" routeLength="1650.10" waitingTime="7.00" waitingCount="1" stopTime="0.00" timeLoss="27.16" rerouteNo="1" devices="tripinfo_veh23 routing_veh23" vType="veh_passenger" speedFactor="0.89" vaporized=""/>
    <tripinfo id="veh30" depart="42.00" departLane="868990994#2_0" departPos="5.10" departSpeed="0.00" departDelay="0.70" arrival="192.00" arrivalLane="-874493445#1_0" arrivalPos="126.98" arrivalSpeed="15.96" duration="150.00" routeLength="2537.18" waitingTime="0.00" waitingCount="0" stopTime="0.00" timeLoss="32.18" rerouteNo="1" devices="tripinfo_veh30 routing_veh30" vType="veh_passenger" speedFactor="1.18" vaporized=""/>
    <tripinfo id="veh31" depart="43.00" departLane="26755921#4_0" departPos="5.10" departSpeed="0.00" departDelay="0.32" arrival="193.00" arrivalLane="1014003072#0_2" arrivalPos="58.66" arrivalSpeed="23.01" duration="150.00" routeLength="2539.37" waitingTime="8.00" waitingCount="1" stopTime="0.00" timeLoss="49.45" rerouteNo="1" devices="tripinfo_veh31 routing_veh31" vType="veh_passenger" speedFactor="1.15" vaporized=""/>
    <tripinfo id="veh47" depart="65.00" departLane="868990994#10_0" departPos="5.10" departSpeed="0.00" departDelay="0.29" arrival="193.00" arrivalLane="-478800351#1_0" arrivalPos="8.10" arrivalSpeed="6.67" duration="128.00" routeLength="1411.92" waitingTime="17.00" waitingCount="1" stopTime="0.00" timeLoss="42.33" rerouteNo="1" devices="tripinfo_veh47 routing_veh47" vType="veh_passenger" speedFactor="0.90" vaporized=""/>
    <tripinfo id="veh77" depart="107.00" departLane="368392214#0_0" departPos="5.10" departSpeed="0.00" departDelay="0.98" arrival="197.00" arrivalLane="368708823#1_0" arrivalPos="31.49" arrivalSpeed="11.45" duration="90.00" routeLength="793.89" waitingTime="0.00" waitingCount="0" stopTime="0.00" timeLoss="25.38" rerouteNo="1" devices="tripinfo_veh77 routing_veh77" vType="veh_passenger" speedFactor="0.98" vaporized=""/>
    <tripinfo id="veh98" depart="135.00" departLane="1118878165_0" departPos="5.10" departSpeed="0.00" departDelay="0.07" arrival="199.00" arrivalLane="478800014_0" arrivalPos="102.08" arrivalSpeed="15.46" duration="64.00" routeLength="636.70" waitingTime="0.00" waitingCount="0" stopTime="0.00" timeLoss="19.18" rerouteNo="1" devices="tripinfo_veh98 routing_veh98" vType="veh_passenger" speedFactor="1.12" vaporized=""/>
    <tripinfo id="veh82" depart="113.00" departLane="-874520139#0_0" departPos="5.10" departSpeed="0.00" departDelay="0.10" arrival="200.00" arrivalLane="-746487536#6_0" arrivalPos="31.54" arrivalSpeed="11.74" duration="87.00" routeLength="913.25" waitingTime="0.00" waitingCount="0" stopTime="0.00" timeLoss="27.10" rerouteNo="1" devices="tripinfo_veh82 routing_veh82" vType="veh_passenger" speedFactor="1.02" vaporized=""/>
    <tripinfo id="veh39" depart="54.00" departLane="-26754610#0_0" departPos="5.10" departSpeed="0.00" departDelay="0.30" arrival="201.00" arrivalLane="-877455850#0_0" arrivalPos="173.84" arrivalSpeed="12.05" duration="147.00" routeLength="1763.72" waitingTime="0.00" waitingCount="0" stopTime="0.00" timeLoss="22.12" rerouteNo="1" devices="tripinfo_veh39 routing_veh39" vType="veh_passenger" speedFactor="0.90" vaporized=""/>
    <tripinfo id="veh46" depart="64.00" departLane="-874582729#1_0" departPos="5.10" departSpeed="13.85" departDelay="0.67" arrival="201.00" arrivalLane="874592581_0" arrivalPos="45.53" arrivalSpeed="12.98" duration="137.00" routeLength="1564.41" waitingTime="5.00" waitingCount="2" stopTime="0.00" timeLoss="36.82" rerouteNo="1" devices="tripinfo_veh46 routing_veh46" vType="veh_passenger" speedFactor="1.00" vaporized=""/>
    <tripinfo id="veh13" depart="18.00" departLane="478774551_0" departPos="5.10" departSpeed="15.60" departDelay="0.10" arrival="206.00" arrivalLane="478775713#2_0" arrivalPos="56.05" arrivalSpeed="15.08" duration="188.00" routeLength="2628.68" waitingTime="0.00" waitingCount="0" stopTime="0.00" timeLoss="39.41" rerouteNo="1" devices="tripinfo_veh13 routing_veh13" vType="veh_passenger" speedFactor="1.12" vaporized=""/>
    <tripinfo id="veh56" depart="78.00" departLane="868990994#8_0" departPos="5.10" departSpeed="0.00" departDelay="0.90" arrival="206.00" arrivalLane="874586794#0_0" arrivalPos="21.00" arrivalSpeed="11.50" duration="128.00" routeLength="1809.58" waitingTime="0.00" waitingCount="0" stopTime="0.00" timeLoss="24.36" rerouteNo="1" devices="tripinfo_veh56 routing_veh56" vType="veh_passenger" speedFactor="0.90" vaporized=""/>
    <tripinfo id="veh17" depart="24.00" departLane="368392171#9_0" departPos="5.10" departSpeed="0.00" departDelay="0.59" arrival="216.00" arrivalLane="-26754316#3_0" arrivalPos="33.68" arrivalSpeed="12.35" duration="192.00" routeLength="3308.43" waitingTime="0.00" waitingCount="0" stopTime="0.00" timeLoss="25.58" rerouteNo="1" devices="tripinfo_veh17 routing_veh17" vType="veh_passenger" speedFactor="0.94" vaporized=""/>
    <tripinfo id="veh4" depart="6.00" departLane="-874520139#0_0" departPos="5.10" departSpeed="0.00" departDelay="0.49" arrival="220.00" arrivalLane="-1426003904_0" arrivalPos="0.20" arrivalSpeed="5.74" duration="214.00" routeLength="2446.09" waitingTime="41.00" waitingCount="1" stopTime="0.00" timeLoss="88.42" rerouteNo="1" devices="tripinfo_veh4 routing_veh4" vType="veh_passenger" speedFactor="1.03" vaporized=""/>
    <tripinfo id="veh50" depart="69.00" departLane="368708783_0" departPos="5.10" departSpeed="0.00" departDelay="0.16" arrival="221.00" arrivalLane="368101946#3_0" arrivalPos="13.42" arrivalSpeed="6.97" duration="152.00" routeLength="1735.15" waitingTime="3.00" waitingCount="1" stopTime="0.00" timeLoss="26.13" rerouteNo="1" devices="tripinfo_veh50 routing_veh50" vType="veh_passenger" speedFactor="0.85" vaporized=""/>
    <tripinfo id="veh52" depart="72.00" departLane="-1014242886_0" departPos="5.10" departSpeed="14.12" departDelay="0.40" arrival="224.00" arrivalLane="-874511511_0" arrivalPos="65.42" arrivalSpeed="13.22" duration="152.00" routeLength="1410.80" waitingTime="48.00" waitingCount="1" stopTime="0.00" timeLoss="72.53" rerouteNo="1" devices="tripinfo_veh52 routing_veh52" vType="veh_passenger" speedFactor="1.02" vaporized=""/>
    <tripinfo id="veh71" depart="98.00" departLane="-368708787_0" departPos="5.10" departSpeed="13.51" departDelay="0.25" arrival="229.00" arrivalLane="-368392154#1_0" arrivalPos="15.52" arrivalSpeed="13.38" duration="131.00" routeLength="1524.95" waitingTime="9.00" waitingCount="1" stopTime="0.00" timeLoss="27.53" rerouteNo="1" devices="tripinfo_veh71 routing_veh71" vType="veh_passenger" speedFactor="0.97" vaporized=""/>
    <tripinfo id="veh88" depart="122.00" departLane="703280019#0_0" departPos="5.10" departSpeed="22.38" departDelay="0.84" arrival="229.00" arrivalLane="-368392210#2_0" arrivalPos="8.97" arrivalSpeed="13.01" duration="107.00" routeLength="1605.29" waitingTime="0.00" waitingCount="0" stopTime="0.00" timeLoss="17.62" rerouteNo="1" devices="tripinfo_veh88 routing_veh88" vType="veh_passenger" speedFactor="1.01" vaporized=""/>
    <tripinfo id="veh1" depart="2.00" departLane="-478774542#1_0" departPos="5.10" departSpeed="0.00" departDelay="0.62" arrival="230.00" arrivalLane="-464264843#1_0" arrivalPos="311.65" arrivalSpeed="12.91" duration="228.00" routeLength="3028.75" waitingTime="24.00" waitingCount="1" stopTime="0.00" timeLoss="61.76" rerouteNo="1" devices="tripinfo_veh1 routing_veh1" vType="veh_passenger" speedFactor="0.94" vaporized=""/>
    <tripinfo id="veh83" depart="115.00" departLane="-368708946_0" departPos="5.10" departSpeed="13.43" departDelay="0.72" arrival="230.00" arrivalLane="874582725_0" arrivalPos="122.34" arrivalSpeed="12.77" duration="115.00" routeLength="1472.37" waitingTime="0.00" waitingCount="0" stopTime="0.00" timeLoss="17.35" rerouteNo="1" devices="tripinfo_veh83 routing_veh83" vType="veh_passenger" speedFactor="0.97" vaporized=""/>
    <tripinfo id="veh75" depart="104.00" departLane="-26755921#1_0" departPos="5.10" departSpeed="0.00" departDelay="0.74" arrival="231.00" arrivalLane="1209433720_1" arrivalPos="87.08" arrivalSpeed="26.83" duration="127.00" routeLength="1961.27" waitingTime="0.00" waitingCount="0" stopTime="0.00" timeLoss="27.30" rerouteNo="1" devices="tripinfo_veh75 routing_veh75" vType="veh_passenger" speedFactor="0.98" vaporized=""/>
    <tripinfo id="veh101" depart="140.00" departLane="-368392200#5_0" departPos="5.10" departSpeed="13.29" departDelay="0.94" arrival="239.00" arrivalLane="874592595_0" arrivalPos="75.25" arrivalSpeed="12.60" duration="99.00" routeLength="771.56" waitingTime="9.00" waitingCount="1" stopTime="0.00" timeLoss="26.75" rerouteNo="1" devices="tripinfo_veh101 routing_veh101" vType="veh_passenger" speedFactor="0.96" vaporized=""/>
    <tripinfo id="veh140" depart="193.00" departLane="-874501469_0" departPos="5.10" departSpeed="15.32" departDelay="0.24" arrival="240.00" arrivalLane="368392245#0_0" arrivalPos="88.39" arrivalSpeed="14.42" duration="47.00" routeLength="587.24" waitingTime="0.00" waitingCount="0" stopTime="0.00" timeLoss="14.01" rerouteNo="1" devices="tripinfo_veh140 routing_veh140" vType="veh_passenger" speedFactor="1.11" vaporized=""/>
    <tripinfo id="veh107" depart="148.00" departLane="-874520136#2_0" departPos="5.10" departSpeed="14.37" departDelay="0.68" arrival="242.00" arrivalLane="368392206#4_0" arrivalPos="49.68" arrivalSpeed="22.64" duration="94.00" routeLength="1243.45" waitingTime="1.00" waitingCount="1" stopTime="0.00" timeLoss="30.24" rerouteNo="1" devices="tripinfo_veh107 routing_veh107" vType="veh_passenger" speedFactor="1.03" vaporized=""/>
    <tripinfo id="veh6" depart="9.00" departLane="26755877#2_0" departPos="5.10" departSpeed="0.00" departDelay="0.74" arrival="243.00" arrivalLane="368392149#2_0" arrivalPos="15.82" arrivalSpeed="13.81" duration="234.00" routeLength="3755.08" waitingTime="2.00" waitingCount="1" stopTime="0.00" timeLoss="53.87" rerouteNo="1" devices="tripinfo_veh6 routing_veh6" vType="veh_passenger" speedFactor="1.05" vaporized=""/>
    <tripinfo id="veh123" depart="170.00" departLane="368392200#0_0" departPos="5.10" departSpeed="14.22" departDelay="0.65" arrival="243.00" arrivalLane="-368708791#2_0" arrivalPos="10.66" arrivalSpeed="9.98" duration="73.00" routeLength="926.23" waitingTime="1.00" waitingCount="1" stopTime="0.00" timeLoss="20.03" rerouteNo="1" devices="tripinfo_veh123 routing_veh123" vType="veh_passenger" speedFactor="1.02" vaporized=""/>
    <tripinfo id="veh35" depart="49.00" departLane="26754140#0_0" departPos="5.10" departSpeed="22.66" departDelay="0.81" arrival="245.00" arrivalLane="874534192#4_0" arrivalPos="113.21" arrivalSpeed="13.41" duration="196.00" routeLength="2949.79" waitingTime="0.00" waitingCount="0" stopTime="0.00" timeLoss="47.61" rerouteNo="1" devices="tripinfo_veh35 routing_veh35" vType="veh_passenger" speedFactor="1.02" vaporized=""/>
    <tripinfo id="veh72" depart="100.00" departLane="874534193_0" departPos="5.10" departSpeed="0.00" departDelay="0.87" arrival="246.00" arrivalLane="368392190#4_0" arrivalPos="21.25" arrivalSpeed="10.52" duration="146.00" routeLength="1795.84" waitingTime="0.00" waitingCount="0" stopTime="0.00" timeLoss="26.56" rerouteNo="1" devices="tripinfo_veh72 routing_veh72" vType="veh_passenger" speedFactor="0.94" vaporized=""/>
    <tripinfo id="veh96" depart="133.00" departLane="-368392199_0" departPos="5.10" departSpeed="14.03" departDelay="0.82" arrival="246.00" arrivalLane="-874465791#7_0" arrivalPos="56.04" arrivalSpeed="15.56" duration="113.00" routeLength="1397.75" waitingTime="3.00" waitingCount="1" stopTime="0.00" timeLoss="25.08" rerouteNo="1" devices="tripinfo_veh96 routing_veh96" vType="veh_passenger" speedFactor="1.01" vaporized=""/>
    <tripinfo id="ev_164" depart="215.00" departLane="-368708808_0" departPos="6.60" departSpeed="0.00" departDelay="0.00" arrival="246.00" arrivalLane="-874534192#3_0" arrivalPos="29.52" arrivalSpeed="55.39" duration="31.00" routeLength="1001.30" waitingTime="0.00" waitingCount="0" stopTime="0.00" timeLoss="-41.01" rerouteNo="1" devices="tripinfo_ev_164 routing_ev_164" vType="emergency_vehicle" speedFactor="1.00" vaporized=""/>
    <tripinfo id="veh79" depart="109.00" departLane="-874501462#1_0" departPos="5.10" departSpeed="15.10" departDelay="0.23" arrival="251.00" arrivalLane="-874534196#0_0" arrivalPos="16.29" arrivalSpeed="14.48" duration="142.00" routeLength="2454.11" waitingTime="0.00" waitingCount="0" stopTime="0.00" timeLoss="29.65" rerouteNo="1" devices="tripinfo_veh79 routing_veh79" vType="veh_passenger" speedFactor="1.09" vaporized=""/>
    <tripinfo id="veh105" depart="148.00" departLane="874465791#13_0" departPos="5.10" departSpeed="0.00" departDelay="3.43" arrival="256.00" arrivalLane="-478775470#2_0" arrivalPos="158.71" arrivalSpeed="14.12" duration="108.00" routeLength="1476.60" waitingTime="0.00" waitingCount="0" stopTime="0.00" timeLoss="24.42" rerouteNo="1" devices="tripinfo_veh105 routing_veh105" vType="veh_passenger" speedFactor="1.07" vaporized=""/>
    <tripinfo id="veh95" depart="131.00" departLane="1208986521_0" departPos="5.10" departSpeed="0.00" departDelay="0.20" arrival="257.00" arrivalLane="478774548_0" arrivalPos="48.91" arrivalSpeed="14.21" duration="126.00" routeLength="2480.54" waitingTime="0.00" waitingCount="0" stopTime="0.00" timeLoss="25.17" rerouteNo="1" devices="tripinfo_veh95 routing_veh95" vType="veh_passenger" speedFactor="1.06" vaporized=""/>
    <tripinfo id="veh73" depart="101.00" departLane="-874586790#0_0" departPos="5.10" departSpeed="0.00" departDelay="0.49" arrival="258.00" arrivalLane="703280020#1_0" arrivalPos="38.97" arrivalSpeed="23.13" duration="157.00" routeLength="2786.39" waitingTime="0.00" waitingCount="0" stopTime="0.00" timeLoss="34.29" rerouteNo="1" devices="tripinfo_veh73 routing_veh73" vType="veh_passenger" speedFactor="1.06" vaporized=""/>
    <tripinfo id="veh84" depart="116.00" departLane="-874572890_0" departPos="5.10" departSpeed="13.06" departDelay="0.35" arrival="265.00" arrivalLane="874477410_0" arrivalPos="74.58" arrivalSpeed="15.38" duration="149.00" routeLength="2218.02" waitingTime="0.00" waitingCount="0" stopTime="0.00" timeLoss="31.98" rerouteNo="1" devices="tripinfo_veh84 routing_veh84" vType="veh_passenger" speedFactor="1.15" vaporized=""/>
    <tripinfo id="veh14" depart="20.00" departLane="-874475295_0" departPos="5.10" departSpeed="0.00" departDelay="0.72" arrival="266.00" arrivalLane="368392154#8_0" arrivalPos="64.79" arrivalSpeed="13.53" duration="246.00" routeLength="2813.84" waitingTime="4.00" waitingCount="1" stopTime="0.00" timeLoss="56.78" rerouteNo="1" devices="tripinfo_veh14 routing_veh14" vType="veh_passenger" speedFactor="0.99" vaporized=""/>
    <tripinfo id="veh134" depart="185.00" departLane="573401035#0_0" departPos="5.10" departSpeed="0.00" departDelay="0.50" arrival="268.00" arrivalLane="368392203_0" arrivalPos="68.23" arrivalSpeed="16.18" duration="83.00" routeLength="1047.42" waitingTime="0.00" waitingCount="0" stopTime="0.00" timeLoss="27.22" rerouteNo="1" devices="tripinfo_veh134 routing_veh134" vType="veh_passenger" speedFactor="1.23" vaporized=""/>
    <tripinfo id="veh122" depart="168.00" departLane="-478774540#1_0" departPos="5.10" departSpeed="14.33" departDelay="0.03" arrival="270.00" arrivalLane="368392227#2_0" arrivalPos="42.99" arrivalSpeed="13.91" duration="102.00" routeLength="1341.64" waitingTime="0.00" waitingCount="0" stopTime="0.00" timeLoss="20.04" rerouteNo="1" devices="tripinfo_veh122 routing_veh122" vType="veh_passenger" speedFactor="1.03" vaporized=""/>
    <tripinfo id="veh62" depart="86.00" departLane="1104677401_0" departPos="5.10" departSpeed="9.85" departDelay="0.64" arrival="272.00" arrivalLane="478775713#3_0" arrivalPos="20.35" arrivalSpeed="13.34" duration="186.00" routeLength="2106.81" waitingTime="10.00" waitingCount="1" stopTime="0.00" timeLoss="40.57" rerouteNo="1" devices="tripinfo_veh62 routing_veh62" vType="veh_passenger" speedFactor="1.02" vaporized=""/>
    <tripinfo id="veh116" depart="160.00" departLane="870242502#0_1" departPos="5.10" departSpeed="32.70" departDelay="0.29" arrival="273.00" arrivalLane="874501463_0" arrivalPos="66.60" arrivalSpeed="16.11" duration="113.00" routeLength="2330.71" waitingTime="0.00" waitingCount="0" stopTime="0.00" timeLoss="16.31" rerouteNo="1" devices="tripinfo_veh116 routing_veh116" vType="veh_passenger" speedFactor="1.18" vaporized=""/>
    <tripinfo id="veh131" depart="181.00" departLane="-874567046#0_0" departPos="5.10" departSpeed="0.00" departDelay="0.64" arrival="277.00" arrivalLane="-1089496850#0_0" arrivalPos="46.67" arrivalSpeed="14.52" duration="96.00" routeLength="986.31" waitingTime="0.00" waitingCount="0" stopTime="0.00" timeLoss="24.52" rerouteNo="1" devices="tripinfo_veh131 routing_veh131" vType="veh_passenger" speedFactor="1.07" vaporized=""/>
    <tripinfo id="veh118" depart="164.00" departLane="26755920_0" departPos="5.10" departSpeed="0.00" departDelay="1.53" arrival="278.00" arrivalLane="-1088782478_0" arrivalPos="91.35" arrivalSpeed="13.27" duration="114.00" routeLength="1814.00" waitingTime="0.00" waitingCount="0" stopTime="0.00" timeLoss="22.90" rerouteNo="1" devices="tripinfo_veh118 routing_veh118" vType="veh_passenger" speedFactor="0.99" vaporized=""/>
    <tripinfo id="veh112" depart="155.00" departLane="-26754775_0" departPos="5.10" departSpeed="0.00" departDelay="0.79" arrival="280.00" arrivalLane="26754313#3_0" arrivalPos="51.35" arrivalSpeed="15.10" duration="125.00" routeLength="1658.12" waitingTime="0.00" waitingCount="0" stopTime="0.00" timeLoss="30.43" rerouteNo="1" devices="tripinfo_veh112 routing_veh112" vType="veh_passenger" speedFactor="1.10" vaporized=""/>