<?xml version="1.0" encoding="UTF-8"?>

<!-- generated on 2025-09-21 02:30:29 by Eclipse SUMO GUI Version 1.24.0
<sumoConfiguration xmlns:xsi="http://www.w3.org/2001/XMLSchema-instance" xsi:noNamespaceSchemaLocation="http://sumo.dlr.de/xsd/sumoConfiguration.xsd">

    <input>
        <net-file value="C:\Users\sujit\Desktop\SIH25\smart-traffic-system\Odisha_Rasulgarh_Sqare\osm.net.xml.gz"/>
        <route-files value="C:\Users\sujit\Desktop\SIH25\smart-traffic-system\Odisha_Rasulgarh_Sqare\osm.passenger.trips.xml"/>
        <additional-files value="C:\Users\sujit\Desktop\SIH25\smart-traffic-system\Odisha_Rasulgarh_Sqare\osm.poly.xml.gz,C:\Users\sujit\Desktop\SIH25\smart-traffic-system\Odisha_Rasulgarh_Sqare\output.add.xml"/>
    </input>

    <output>
        <tripinfo-output value="C:\Users\sujit\Desktop\SIH25\smart-traffic-system\Odisha_Rasulgarh_Sqare\tripinfos.xml"/>
        <statistic-output value="C:\Users\sujit\Desktop\SIH25\smart-traffic-system\Odisha_Rasulgarh_Sqare\stats.xml"/>
    </output>

    <processing>
        <ignore-route-errors value="true"/>
        <tls.actuated.jam-threshold value="30"/>
    </processing>

    <routing>
        <device.rerouting.adaptation-steps value="18"/>
        <device.rerouting.adaptation-interval value="10"/>
    </routing>

    <report>
        <verbose value="true"/>
        <duration-log.statistics value="true"/>
        <no-step-log value="true"/>
    </report>

    <gui_only>
        <gui-settings-file value="C:\Users\sujit\Desktop\SIH25\smart-traffic-system\Odisha_Rasulgarh_Sqare\osm.view.xml"/>
    </gui_only>

</sumoConfiguration>
-->

<meandata xmlns:xsi="http://www.w3.org/2001/XMLSchema-instance" xsi:noNamespaceSchemaLocation="http://sumo.dlr.de/xsd/meandata_file.xsd">
    <interval begin="0.00" end="1936.00" id="wizard_example">
        <edge id="-1010473717" sampledSeconds="1348.83" traveltime="336.64" overlapTraveltime="352.17" density="27.86" laneDensity="27.86" occupancy="12.81" waitingTime="1306.00" timeLoss="1339.01" speed="0.09" speedRelative="0.01" departed="0" arrived="0" entered="4" left="4" laneChangedFrom="0" laneChangedTo="0" teleported="1"/>
        <edge id="-1014242886" sampledSeconds="171.71" traveltime="22.49" overlapTraveltime="23.35" density="1.53" laneDensity="1.53" occupancy="0.75" waitingTime="114.00" timeLoss="134.48" speed="2.70" speedRelative="0.19" departed="8" arrived="0" entered="0" left="8" laneChangedFrom="0" laneChangedTo="0"/>
        <edge id="-1014242887" sampledSeconds="1183.84" traveltime="36.43" overlapTraveltime="37.80" density="25.89" laneDensity="25.89" occupancy="12.14" waitingTime="969.95" timeLoss="1135.29" speed="0.76" speedRelative="0.03" departed="2" arrived="0" entered="31" left="30" laneChangedFrom="0" laneChangedTo="0"/>
        <edge id="-1014249820#0" sampledSeconds="135.17" traveltime="8.97" overlapTraveltime="9.65" density="0.76" laneDensity="0.76" occupancy="0.36" waitingTime="0.00" timeLoss="27.64" speed="9.99" speedRelative="0.72" departed="0" arrived="0" entered="14" left="14" laneChangedFrom="0" laneChangedTo="0"/>
        <edge id="-1014249820#1" sampledSeconds="37.83" traveltime="4.75" overlapTraveltime="5.16" density="0.35" laneDensity="0.35" occupancy="0.17" waitingTime="0.00" timeLoss="2.67" speed="11.71" speedRelative="0.84" departed="8" arrived="0" entered="0" left="8" laneChangedFrom="0" laneChangedTo="0"/>
        <edge id="-1031973271" sampledSeconds="0.00" departed="0" arrived="0" entered="0" left="0" laneChangedFrom="0" laneChangedTo="0"/>
        <edge id="-1031973272" sampledSeconds="73.24" traveltime="11.17" overlapTraveltime="12.21" density="0.43" laneDensity="0.43" occupancy="0.20" waitingTime="13.00" timeLoss="28.33" speed="7.62" speedRelative="0.55" departed="0" arrived="0" entered="6" left="6" laneChangedFrom="0" laneChangedTo="0"/>
        <edge id="-1031973273" sampledSeconds="0.00" departed="0" arrived="0" entered="0" left="0" laneChangedFrom="0" laneChangedTo="0"/>
        <edge id="-1037882881" sampledSeconds="0.00" departed="0" arrived="0" entered="0" left="0" laneChangedFrom="0" laneChangedTo="0"/>
        <edge id="-1037882882" sampledSeconds="88.52" traveltime="11.82" overlapTraveltime="12.44" density="2.52" laneDensity="2.52" occupancy="1.18" waitingTime="54.00" timeLoss="74.63" speed="1.86" speedRelative="0.13" departed="4" arrived="0" entered="4" left="8" laneChangedFrom="0" laneChangedTo="0"/>
        <edge id="-1037882886" sampledSeconds="14.96" traveltime="5.96" overlapTraveltime="7.48" density="0.14" laneDensity="0.14" occupancy="0.06" waitingTime="0.00" timeLoss="5.46" speed="8.01" speedRelative="0.58" departed="0" arrived="0" entered="2" left="2" laneChangedFrom="0" laneChangedTo="0"/>
        <edge id="-1062832920" sampledSeconds="132.68" traveltime="11.89" overlapTraveltime="12.92" density="0.66" laneDensity="0.66" occupancy="0.31" waitingTime="5.00" timeLoss="45.87" speed="8.44" speedRelative="0.61" departed="0" arrived="0" entered="11" left="10" laneChangedFrom="0" laneChangedTo="0"/>
        <edge id="-1063500746" sampledSeconds="175.47" traveltime="1.68" overlapTraveltime="2.20" density="7.39" laneDensity="7.39" occupancy="2.57" waitingTime="0.00" timeLoss="112.10" speed="7.86" speedRelative="0.35" departed="0" arrived="2" entered="80" left="78" laneChangedFrom="0" laneChangedTo="0"/>
        <edge id="-1069590760#0" sampledSeconds="18.54" traveltime="1.53" overlapTraveltime="3.09" density="1.28" laneDensity="1.28" occupancy="0.40" waitingTime="0.00" timeLoss="9.14" speed="4.04" speedRelative="0.29" departed="0" arrived="0" entered="6" left="6" laneChangedFrom="0" laneChangedTo="0"/>
        <edge id="-1069590760#1" sampledSeconds="41.29" traveltime="4.93" overlapTraveltime="5.50" density="0.58" laneDensity="0.58" occupancy="0.27" waitingTime="1.00" timeLoss="18.34" speed="7.61" speedRelative="0.55" departed="4" arrived="2" entered="4" left="6" laneChangedFrom="0" laneChangedTo="0"/>
        <edge id="-1069590760#2" sampledSeconds="37.68" traveltime="3.19" overlapTraveltime="3.77" density="0.60" laneDensity="0.60" occupancy="0.26" waitingTime="0.00" timeLoss="7.87" speed="9.87" speedRelative="0.71" departed="0" arrived="2" entered="10" left="8" laneChangedFrom="0" laneChangedTo="0"/>
        <edge id="-1069590760#3" sampledSeconds="90.77" traveltime="5.47" overlapTraveltime="6.06" density="0.70" laneDensity="0.70" occupancy="0.32" waitingTime="0.00" timeLoss="9.74" speed="11.90" speedRelative="0.86" departed="0" arrived="2" entered="15" left="13" laneChangedFrom="0" laneChangedTo="0"/>
        <edge id="-1069590760#4" sampledSeconds="150.67" traveltime="6.92" overlapTraveltime="7.39" density="0.87" laneDensity="0.87" occupancy="0.41" waitingTime="0.00" timeLoss="12.39" speed="12.80" speedRelative="0.92" departed="0" arrived="2" entered="21" left="18" laneChangedFrom="0" laneChangedTo="0"/>
        <edge id="-1069590760#5" sampledSeconds="176.80" traveltime="6.08" overlapTraveltime="6.56" density="1.21" laneDensity="1.21" occupancy="0.56" waitingTime="0.00" timeLoss="17.84" speed="12.31" speedRelative="0.89" departed="0" arrived="2" entered="27" left="25" laneChangedFrom="0" laneChangedTo="0"/>
        <edge id="-1069590760#6" sampledSeconds="573.90" traveltime="27.91" overlapTraveltime="28.90" density="1.38" laneDensity="1.38" occupancy="0.67" waitingTime="167.00" timeLoss="260.51" speed="7.60" speedRelative="0.55" departed="6" arrived="2" entered="14" left="18" laneChangedFrom="0" laneChangedTo="0"/>
        <edge id="-1069590761" sampledSeconds="27.03" traveltime="10.93" overlapTraveltime="11.36" density="0.14" laneDensity="0.14" occupancy="0.07" waitingTime="0.00" timeLoss="7.78" speed="9.40" speedRelative="0.68" departed="2" arrived="0" entered="1" left="2" laneChangedFrom="0" laneChangedTo="0"/>
        <edge id="-1069590762" sampledSeconds="24.09" traveltime="3.79" overlapTraveltime="4.22" density="0.41" laneDensity="0.41" occupancy="0.18" waitingTime="0.00" timeLoss="9.60" speed="8.42" speedRelative="0.61" departed="2" arrived="0" entered="4" left="6" laneChangedFrom="0" laneChangedTo="0"/>
        <edge id="-1070273296#0" sampledSeconds="13.58" traveltime="6.41" overlapTraveltime="6.79" density="0.09" laneDensity="0.09" occupancy="0.04" waitingTime="0.00" timeLoss="1.81" speed="11.62" speedRelative="0.84" departed="0" arrived="0" entered="2" left="2" laneChangedFrom="0" laneChangedTo="0"/>
        <edge id="-1081390707" sampledSeconds="20.46" traveltime="3.12" overlapTraveltime="3.65" density="0.50" laneDensity="0.50" occupancy="0.21" waitingTime="0.00" timeLoss="9.43" speed="7.12" speedRelative="0.51" departed="2" arrived="0" entered="4" left="6" laneChangedFrom="0" laneChangedTo="0"/>
        <edge id="-1088782478" sampledSeconds="31.86" traveltime="7.66" overlapTraveltime="8.05" density="0.18" laneDensity="0.18" occupancy="0.08" waitingTime="0.00" timeLoss="3.90" speed="11.98" speedRelative="0.86" departed="0" arrived="4" entered="4" left="0" laneChangedFrom="0" laneChangedTo="0"/>
        <edge id="-1089496850#0" sampledSeconds="19.43" traveltime="4.43" overlapTraveltime="4.86" density="0.22" laneDensity="0.22" occupancy="0.10" waitingTime="0.00" timeLoss="2.55" speed="10.64" speedRelative="0.77" departed="0" arrived="4" entered="4" left="0" laneChangedFrom="0" laneChangedTo="0"/>
        <edge id="-1089496850#1" sampledSeconds="12.24" overlapTraveltime="3.06" density="2.53" laneDensity="2.53" occupancy="0.54" waitingTime="3.00" timeLoss="8.31" speed="2.45" speedRelative="0.18" departed="6" arrived="0" entered="0" left="6" laneChangedFrom="0" laneChangedTo="0"/>
        <edge id="-1103712723" sampledSeconds="51.33" traveltime="11.86" overlapTraveltime="13.14" density="0.25" laneDensity="0.25" occupancy="0.12" waitingTime="0.00" timeLoss="18.36" speed="8.38" speedRelative="0.60" departed="2" arrived="0" entered="2" left="4" laneChangedFrom="0" laneChangedTo="0"/>
        <edge id="-1103822285" sampledSeconds="22.73" traveltime="10.70" overlapTraveltime="11.36" density="0.09" laneDensity="0.09" occupancy="0.04" waitingTime="0.00" timeLoss="4.12" speed="12.16" speedRelative="0.88" departed="0" arrived="0" entered="2" left="2" laneChangedFrom="0" laneChangedTo="0"/>
        <edge id="-1103822286" sampledSeconds="0.00" departed="0" arrived="0" entered="0" left="0" laneChangedFrom="0" laneChangedTo="0"/>
        <edge id="-1104677400" sampledSeconds="0.00" departed="0" arrived="0" entered="0" left="0" laneChangedFrom="0" laneChangedTo="0"/>
        <edge id="-1104677401" sampledSeconds="0.00" departed="0" arrived="0" entered="0" left="0" laneChangedFrom="0" laneChangedTo="0"/>
        <edge id="-1105166399" sampledSeconds="36.07" traveltime="17.79" overlapTraveltime="18.56" density="0.11" laneDensity="0.11" occupancy="0.05" waitingTime="0.00" timeLoss="8.74" speed="9.83" speedRelative="0.71" departed="2" arrived="0" entered="0" left="2" laneChangedFrom="0" laneChangedTo="0"/>
        <edge id="-1112869037" sampledSeconds="90.53" traveltime="3.91" overlapTraveltime="4.55" density="1.29" laneDensity="1.29" occupancy="0.57" waitingTime="0.00" timeLoss="29.87" speed="9.03" speedRelative="0.65" departed="0" arrived="2" entered="20" left="18" laneChangedFrom="0" laneChangedTo="0"/>
        <edge id="-1116751009#0" sampledSeconds="10.68" traveltime="0.93" overlapTraveltime="2.67" density="1.41" laneDensity="1.41" occupancy="0.32" waitingTime="0.00" timeLoss="4.66" speed="3.34" speedRelative="0.24" departed="0" arrived="0" entered="4" left="4" laneChangedFrom="0" laneChangedTo="0"/>
        <edge id="-1116751009#1" sampledSeconds="22.46" traveltime="5.20" overlapTraveltime="5.61" density="0.20" laneDensity="0.20" occupancy="0.09" waitingTime="0.00" timeLoss="4.68" speed="11.01" speedRelative="0.79" departed="0" arrived="0" entered="4" left="4" laneChangedFrom="0" laneChangedTo="0"/>
        <edge id="-1118878165" sampledSeconds="70.18" traveltime="6.31" overlapTraveltime="7.02" density="0.63" laneDensity="0.63" occupancy="0.28" waitingTime="0.00" timeLoss="21.69" speed="8.97" speedRelative="0.65" departed="0" arrived="0" entered="10" left="10" laneChangedFrom="0" laneChangedTo="0"/>
        <edge id="-1123238278" sampledSeconds="39.82" traveltime="9.97" overlapTraveltime="10.31" density="0.15" laneDensity="0.15" occupancy="0.07" waitingTime="0.00" timeLoss="2.65" speed="14.21" speedRelative="1.02" departed="4" arrived="0" entered="0" left="4" laneChangedFrom="0" laneChangedTo="0"/>
        <edge id="-1124037096#0" sampledSeconds="5.34" traveltime="1.01" overlapTraveltime="1.38" density="0.21" laneDensity="0.21" occupancy="0.08" waitingTime="0.00" timeLoss="0.26" speed="13.12" speedRelative="0.94" departed="0" arrived="4" entered="4" left="0" laneChangedFrom="0" laneChangedTo="0"/>
        <edge id="-1124037096#1" sampledSeconds="28.34" traveltime="2.97" overlapTraveltime="3.54" density="0.62" laneDensity="0.62" occupancy="0.25" waitingTime="0.00" timeLoss="9.24" speed="8.13" speedRelative="0.59" departed="0" arrived="0" entered="8" left="8" laneChangedFrom="0" laneChangedTo="0"/>
        <edge id="-1125305420" sampledSeconds="16.09" traveltime="7.91" overlapTraveltime="8.92" density="0.18" laneDensity="0.18" occupancy="0.08" waitingTime="0.00" timeLoss="7.41" speed="5.82" speedRelative="0.42" departed="2" arrived="0" entered="0" left="2" laneChangedFrom="0" laneChangedTo="0"/>
        <edge id="-1128732400" sampledSeconds="87.76" traveltime="4.11" overlapTraveltime="4.84" density="1.48" laneDensity="1.48" occupancy="0.63" waitingTime="0.00" timeLoss="32.54" speed="7.37" speedRelative="0.53" departed="0" arrived="0" entered="19" left="18" laneChangedFrom="0" laneChangedTo="0"/>
        <edge id="-1133810439#0" sampledSeconds="84.26" traveltime="7.64" overlapTraveltime="8.43" density="0.60" laneDensity="0.60" occupancy="0.27" waitingTime="0.00" timeLoss="23.74" speed="9.23" speedRelative="0.66" departed="0" arrived="0" entered="10" left="10" laneChangedFrom="0" laneChangedTo="0"/>
        <edge id="-1133810439#1" sampledSeconds="0.00" departed="0" arrived="0" entered="0" left="0" laneChangedFrom="0" laneChangedTo="0"/>
        <edge id="-1133810440#0" sampledSeconds="6.84" traveltime="3.20" overlapTraveltime="3.66" density="0.12" laneDensity="0.12" occupancy="0.05" waitingTime="0.00" timeLoss="2.54" speed="9.27" speedRelative="0.67" departed="0" arrived="2" entered="2" left="0" laneChangedFrom="0" laneChangedTo="0"/>
        <edge id="-1133810440#1" sampledSeconds="24.35" traveltime="4.38" overlapTraveltime="5.05" density="0.60" laneDensity="0.60" occupancy="0.27" waitingTime="0.00" timeLoss="15.56" speed="5.12" speedRelative="0.37" departed="6" arrived="0" entered="0" left="6" laneChangedFrom="0" laneChangedTo="0"/>
        <edge id="-1184120416#0" sampledSeconds="1628.59" traveltime="5.84" overlapTraveltime="6.65" density="19.69" laneDensity="19.69" occupancy="8.86" waitingTime="50.00" timeLoss="667.11" speed="7.18" speedRelative="0.52" departed="0" arrived="0" entered="245" left="245" laneChangedFrom="0" laneChangedTo="0"/>
        <edge id="-1184120416#1" sampledSeconds="1295.08" traveltime="4.93" overlapTraveltime="5.66" density="20.31" laneDensity="20.31" occupancy="8.79" waitingTime="10.00" timeLoss="659.43" speed="6.70" speedRelative="0.48" departed="2" arrived="0" entered="227" left="229" laneChangedFrom="0" laneChangedTo="0"/>
        <edge id="-1194661209" sampledSeconds="60.65" traveltime="3.46" overlapTraveltime="4.33" density="1.70" laneDensity="1.70" occupancy="0.72" waitingTime="4.00" timeLoss="34.02" speed="5.40" speedRelative="0.39" departed="0" arrived="0" entered="14" left="14" laneChangedFrom="0" laneChangedTo="0"/>
        <edge id="-1194669273" sampledSeconds="308.72" traveltime="4.13" overlapTraveltime="5.06" density="12.25" laneDensity="12.25" occupancy="5.16" waitingTime="96.00" timeLoss="202.80" speed="3.56" speedRelative="0.26" departed="0" arrived="2" entered="61" left="59" laneChangedFrom="0" laneChangedTo="0"/>
        <edge id="-1194720928" sampledSeconds="34.78" traveltime="8.56" overlapTraveltime="9.18" density="0.19" laneDensity="0.19" occupancy="0.09" waitingTime="0.00" timeLoss="7.98" speed="10.63" speedRelative="0.77" departed="4" arrived="0" entered="0" left="4" laneChangedFrom="0" laneChangedTo="0"/>
        <edge id="-1203102057#0" sampledSeconds="48.10" traveltime="4.94" overlapTraveltime="5.34" density="0.42" laneDensity="0.42" occupancy="0.19" waitingTime="0.00" timeLoss="6.16" speed="11.95" speedRelative="0.86" departed="0" arrived="0" entered="9" left="9" laneChangedFrom="0" laneChangedTo="0"/>
        <edge id="-1203102057#1" sampledSeconds="63.14" traveltime="5.97" overlapTraveltime="6.43" density="0.52" laneDensity="0.52" occupancy="0.24" waitingTime="0.00" timeLoss="13.89" speed="10.47" speedRelative="0.75" departed="2" arrived="2" entered="8" left="8" laneChangedFrom="0" laneChangedTo="0"/>
        <edge id="-1203407243" sampledSeconds="0.00" departed="0" arrived="0" entered="0" left="0" laneChangedFrom="0" laneChangedTo="0"/>
        <edge id="-1209009345" sampledSeconds="213.84" traveltime="15.02" overlapTraveltime="15.28" density="0.44" laneDensity="0.44" occupancy="0.21" waitingTime="0.00" timeLoss="48.31" speed="16.85" speedRelative="0.76" departed="0" arrived="2" entered="14" left="12" laneChangedFrom="0" laneChangedTo="0"/>
        <edge id="-1230825178" sampledSeconds="0.00" departed="0" arrived="0" entered="0" left="0" laneChangedFrom="0" laneChangedTo="0"/>
        <edge id="-1234980578#0" sampledSeconds="30.98" traveltime="4.62" overlapTraveltime="5.16" density="0.33" laneDensity="0.33" occupancy="0.15" waitingTime="0.00" timeLoss="7.37" speed="10.42" speedRelative="0.75" departed="0" arrived="0" entered="6" left="6" laneChangedFrom="0" laneChangedTo="0"/>
        <edge id="-1234980578#1" sampledSeconds="41.77" traveltime="4.30" overlapTraveltime="4.80" density="0.49" laneDensity="0.49" occupancy="0.22" waitingTime="0.00" timeLoss="10.09" speed="10.22" speedRelative="0.74" departed="2" arrived="1" entered="7" left="8" laneChangedFrom="0" laneChangedTo="0"/>
        <edge id="-1234980578#2" sampledSeconds="28.10" traveltime="3.54" overlapTraveltime="4.01" density="0.32" laneDensity="0.32" occupancy="0.14" waitingTime="0.00" timeLoss="2.73" speed="12.53" speedRelative="0.90" departed="0" arrived="0" entered="7" left="7" laneChangedFrom="0" laneChangedTo="0"/>
        <edge id="-1234980578#3" sampledSeconds="17.67" traveltime="1.16" overlapTraveltime="1.61" density="0.68" laneDensity="0.68" occupancy="0.25" waitingTime="0.00" timeLoss="2.15" speed="11.42" speedRelative="0.82" departed="0" arrived="2" entered="11" left="9" laneChangedFrom="0" laneChangedTo="0"/>
        <edge id="-1234980578#4" sampledSeconds="26.78" traveltime="2.10" overlapTraveltime="2.53" density="0.71" laneDensity="0.71" occupancy="0.30" waitingTime="0.00" timeLoss="8.96" speed="9.64" speedRelative="0.69" departed="2" arrived="2" entered="9" left="9" laneChangedFrom="0" laneChangedTo="0"/>
        <edge id="-1234980578#5" sampledSeconds="35.57" traveltime="3.58" overlapTraveltime="4.06" density="0.47" laneDensity="0.47" occupancy="0.21" waitingTime="0.00" timeLoss="6.86" speed="10.89" speedRelative="0.78" departed="2" arrived="0" entered="7" left="9" laneChangedFrom="0" laneChangedTo="0"/>
        <edge id="-1234980579#0" sampledSeconds="28.44" traveltime="2.12" overlapTraveltime="2.61" density="0.68" laneDensity="0.68" occupancy="0.28" waitingTime="0.00" timeLoss="7.16" speed="10.15" speedRelative="0.73" departed="0" arrived="2" entered="11" left="9" laneChangedFrom="0" laneChangedTo="0"/>
        <edge id="-1234980579#1" sampledSeconds="49.71" traveltime="4.16" overlapTraveltime="4.53" density="0.59" laneDensity="0.59" occupancy="0.26" waitingTime="0.00" timeLoss="12.45" speed="10.68" speedRelative="0.77" departed="0" arrived="2" entered="11" left="9" laneChangedFrom="0" laneChangedTo="0"/>
        <edge id="-1353599544" sampledSeconds="27.06" traveltime="6.78" overlapTraveltime="7.14" density="0.15" laneDensity="0.15" occupancy="0.07" waitingTime="0.00" timeLoss="1.25" speed="13.72" speedRelative="0.99" departed="4" arrived="0" entered="0" left="4" laneChangedFrom="0" laneChangedTo="0"/>
        <edge id="-1386043220" sampledSeconds="0.00" departed="0" arrived="0" entered="0" left="0" laneChangedFrom="0" laneChangedTo="0"/>
        <edge id="-1388249679" sampledSeconds="15.63" traveltime="7.25" overlapTraveltime="8.59" density="0.16" laneDensity="0.16" occupancy="0.07" waitingTime="0.00" timeLoss="4.41" speed="6.54" speedRelative="0.47" departed="2" arrived="0" entered="0" left="2" laneChangedFrom="0" laneChangedTo="0"/>
        <edge id="-1390881590" sampledSeconds="45.89" traveltime="7.30" overlapTraveltime="7.69" density="0.27" laneDensity="0.27" occupancy="0.13" waitingTime="0.00" timeLoss="3.49" speed="12.21" speedRelative="0.88" departed="0" arrived="6" entered="6" left="0" laneChangedFrom="0" laneChangedTo="0"/>
        <edge id="-1391510254" sampledSeconds="92.93" traveltime="24.04" overlapTraveltime="24.99" density="0.71" laneDensity="0.71" occupancy="0.35" waitingTime="56.00" timeLoss="71.58" speed="2.90" speedRelative="0.21" departed="4" arrived="0" entered="0" left="4" laneChangedFrom="0" laneChangedTo="0"/>
        <edge id="-1392047843" sampledSeconds="0.00" departed="0" arrived="0" entered="0" left="0" laneChangedFrom="0" laneChangedTo="0"/>
        <edge id="-1426003902" sampledSeconds="13.60" traveltime="0.03" overlapTraveltime="0.74" density="35.12" laneDensity="35.12" occupancy="0.68" waitingTime="0.00" timeLoss="9.20" speed="7.01" speedRelative="0.32" departed="0" arrived="2" entered="19" left="17" laneChangedFrom="0" laneChangedTo="0"/>
        <edge id="-1426003904" sampledSeconds="0.38" traveltime="0.03" overlapTraveltime="0.79" density="0.98" laneDensity="0.98" occupancy="0.02" waitingTime="0.00" timeLoss="0.20" speed="6.55" speedRelative="0.47" departed="0" arrived="2" entered="2" left="0" laneChangedFrom="0" laneChangedTo="0"/>
        <edge id="-234379809#1" sampledSeconds="133.85" traveltime="8.87" overlapTraveltime="9.56" density="0.70" laneDensity="0.70" occupancy="0.33" waitingTime="0.00" timeLoss="22.19" speed="10.89" speedRelative="0.78" departed="0" arrived="0" entered="14" left="14" laneChangedFrom="0" laneChangedTo="0"/>
        <edge id="-234379809#2" sampledSeconds="111.88" traveltime="7.59" overlapTraveltime="7.99" density="0.61" laneDensity="0.61" occupancy="0.29" waitingTime="0.00" timeLoss="9.24" speed="12.39" speedRelative="0.89" departed="0" arrived="0" entered="14" left="14" laneChangedFrom="0" laneChangedTo="0"/>
        <edge id="-234379809#7" sampledSeconds="821.56" traveltime="40.55" overlapTraveltime="41.10" density="0.85" laneDensity="0.85" occupancy="0.42" waitingTime="0.00" timeLoss="84.35" speed="12.22" speedRelative="0.88" departed="0" arrived="4" entered="20" left="16" laneChangedFrom="0" laneChangedTo="0"/>
        <edge id="-26754114#0" sampledSeconds="28.45" traveltime="2.00" overlapTraveltime="2.59" density="0.82" laneDensity="0.82" occupancy="0.32" waitingTime="0.00" timeLoss="8.28" speed="8.86" speedRelative="0.64" departed="0" arrived="1" entered="11" left="10" laneChangedFrom="0" laneChangedTo="0"/>
        <edge id="-26754114#1" sampledSeconds="42.69" traveltime="4.93" overlapTraveltime="5.34" density="0.38" laneDensity="0.38" occupancy="0.18" waitingTime="0.00" timeLoss="5.70" speed="11.73" speedRelative="0.84" departed="0" arrived="0" entered="8" left="8" laneChangedFrom="0" laneChangedTo="0"/>
        <edge id="-26754114#2" sampledSeconds="48.96" traveltime="4.41" overlapTraveltime="5.00" density="0.55" laneDensity="0.55" occupancy="0.25" waitingTime="0.00" timeLoss="9.98" speed="10.16" speedRelative="0.73" departed="2" arrived="0" entered="8" left="10" laneChangedFrom="0" laneChangedTo="0"/>
        <edge id="-26754114#3" sampledSeconds="38.08" traveltime="2.47" overlapTraveltime="2.94" density="1.01" laneDensity="1.01" occupancy="0.39" waitingTime="0.00" timeLoss="14.47" speed="8.36" speedRelative="0.60" departed="0" arrived="2" entered="13" left="11" laneChangedFrom="0" laneChangedTo="0"/>
        <edge id="-26754131" sampledSeconds="52.54" traveltime="8.21" overlapTraveltime="8.82" density="0.28" laneDensity="0.28" occupancy="0.13" waitingTime="0.00" timeLoss="7.63" speed="11.63" speedRelative="0.84" departed="0" arrived="2" entered="6" left="4" laneChangedFrom="0" laneChangedTo="0"/>
        <edge id="-26754140#0" sampledSeconds="39.07" traveltime="9.57" overlapTraveltime="9.81" density="0.10" laneDensity="0.10" occupancy="0.05" waitingTime="0.00" timeLoss="0.98" speed="20.42" speedRelative="0.92" departed="0" arrived="4" entered="4" left="0" laneChangedFrom="0" laneChangedTo="0"/>
        <edge id="-26754140#1" sampledSeconds="41.40" traveltime="4.75" overlapTraveltime="5.17" density="0.23" laneDensity="0.23" occupancy="0.11" waitingTime="0.00" timeLoss="4.96" speed="18.67" speedRelative="0.84" departed="0" arrived="2" entered="8" left="6" laneChangedFrom="0" laneChangedTo="0"/>
        <edge id="-26754140#2" sampledSeconds="55.04" traveltime="5.18" overlapTraveltime="5.50" density="0.30" laneDensity="0.30" occupancy="0.14" waitingTime="0.00" timeLoss="9.99" speed="17.86" speedRelative="0.80" departed="0" arrived="0" entered="10" left="10" laneChangedFrom="0" laneChangedTo="0"/>
        <edge id="-26754150#0" sampledSeconds="12.89" traveltime="2.46" overlapTraveltime="3.22" density="0.32" laneDensity="0.32" occupancy="0.13" waitingTime="0.00" timeLoss="3.20" speed="7.97" speedRelative="0.57" departed="0" arrived="0" entered="4" left="4" laneChangedFrom="0" laneChangedTo="0"/>
        <edge id="-26754150#1" sampledSeconds="0.00" departed="0" arrived="0" entered="0" left="0" laneChangedFrom="0" laneChangedTo="0"/>
        <edge id="-26754158#0" sampledSeconds="22.01" traveltime="10.33" overlapTraveltime="11.01" density="0.09" laneDensity="0.09" occupancy="0.04" waitingTime="0.00" timeLoss="4.21" speed="12.17" speedRelative="0.88" departed="0" arrived="0" entered="2" left="2" laneChangedFrom="0" laneChangedTo="0"/>
        <edge id="-26754158#1" sampledSeconds="11.60" traveltime="5.45" overlapTraveltime="5.80" density="0.08" laneDensity="0.08" occupancy="0.04" waitingTime="0.00" timeLoss="1.60" speed="13.53" speedRelative="0.97" departed="0" arrived="0" entered="2" left="2" laneChangedFrom="0" laneChangedTo="0"/>
        <edge id="-26754171" sampledSeconds="0.00" departed="0" arrived="0" entered="0" left="0" laneChangedFrom="0" laneChangedTo="0"/>
        <edge id="-26754175" sampledSeconds="0.00" departed="0" arrived="0" entered="0" left="0" laneChangedFrom="0" laneChangedTo="0"/>
        <edge id="-26754182#0" sampledSeconds="0.00" departed="0" arrived="0" entered="0" left="0" laneChangedFrom="0" laneChangedTo="0"/>
        <edge id="-26754182#1" sampledSeconds="0.00" departed="0" arrived="0" entered="0" left="0" laneChangedFrom="0" laneChangedTo="0"/>
        <edge id="-26754182#2" sampledSeconds="0.00" departed="0" arrived="0" entered="0" left="0" laneChangedFrom="0" laneChangedTo="0"/>
        <edge id="-26754182#3" sampledSeconds="26.45" traveltime="1.76" overlapTraveltime="2.65" density="1.11" laneDensity="1.11" occupancy="0.40" waitingTime="0.00" timeLoss="9.50" speed="6.55" speedRelative="0.47" departed="0" arrived="0" entered="10" left="10" laneChangedFrom="0" laneChangedTo="0"/>
        <edge id="-26754190#0" sampledSeconds="92.75" traveltime="11.17" overlapTraveltime="11.71" density="0.37" laneDensity="0.37" occupancy="0.18" waitingTime="0.00" timeLoss="13.51" speed="11.45" speedRelative="0.82" departed="2" arrived="0" entered="6" left="8" laneChangedFrom="0" laneChangedTo="0"/>
        <edge id="-26754190#1" sampledSeconds="24.94" traveltime="5.58" overlapTraveltime="6.23" density="0.22" laneDensity="0.22" occupancy="0.10" waitingTime="0.00" timeLoss="6.37" speed="10.36" speedRelative="0.75" departed="0" arrived="0" entered="4" left="4" laneChangedFrom="0" laneChangedTo="0"/>
        <edge id="-26754190#2" sampledSeconds="18.03" traveltime="4.13" overlapTraveltime="4.51" density="0.18" laneDensity="0.18" occupancy="0.08" waitingTime="0.00" timeLoss="1.55" speed="12.71" speedRelative="0.92" departed="0" arrived="0" entered="4" left="4" laneChangedFrom="0" laneChangedTo="0"/>
        <edge id="-26754190#3" sampledSeconds="56.27" traveltime="6.43" overlapTraveltime="7.17" density="0.48" laneDensity="0.48" occupancy="0.22" waitingTime="0.00" timeLoss="16.93" speed="9.10" speedRelative="0.66" departed="2" arrived="0" entered="6" left="8" laneChangedFrom="0" laneChangedTo="0"/>
        <edge id="-26754207#0" sampledSeconds="0.00" departed="0" arrived="0" entered="0" left="0" laneChangedFrom="0" laneChangedTo="0"/>
        <edge id="-26754207#1" sampledSeconds="0.00" departed="0" arrived="0" entered="0" left="0" laneChangedFrom="0" laneChangedTo="0"/>
        <edge id="-26754207#2" sampledSeconds="0.00" departed="0" arrived="0" entered="0" left="0" laneChangedFrom="0" laneChangedTo="0"/>
        <edge id="-26754217#0" sampledSeconds="70.63" traveltime="8.00" overlapTraveltime="8.83" density="0.42" laneDensity="0.42" occupancy="0.20" waitingTime="0.00" timeLoss="18.15" speed="10.29" speedRelative="0.74" departed="0" arrived="0" entered="8" left="8" laneChangedFrom="0" laneChangedTo="0"/>
        <edge id="-26754217#1" sampledSeconds="7.62" traveltime="0.04" overlapTraveltime="0.95" density="19.67" laneDensity="19.67" occupancy="0.38" waitingTime="0.00" timeLoss="1.55" speed="5.46" speedRelative="0.39" departed="0" arrived="0" entered="8" left="8" laneChangedFrom="0" laneChangedTo="0"/>