<?xml version="1.0" encoding="UTF-8"?>

<!-- generated on 2025-09-21 12:44:41 by Eclipse SUMO GUI Version 1.24.0
<sumoConfiguration xmlns:xsi="http://www.w3.org/2001/XMLSchema-instance" xsi:noNamespaceSchemaLocation="http://sumo.dlr.de/xsd/sumoConfiguration.xsd">

    <input>
        <net-file value="../Odisha_Rasulgarh_Sqare/osm.net.xml.gz"/>
        <route-files value="../Odisha_Rasulgarh_Sqare/osm.passenger.trips.xml"/>
        <additional-files value="../Odisha_Rasulgarh_Sqare/osm.poly.xml.gz,../Odisha_Rasulgarh_Sqare/output.add.xml"/>
    </input>

    <output>
        <summary-output value="outputs/odisha_after_ai_summary.xml"/>
        <tripinfo-output value="outputs/odisha_after_ai_tripinfo.xml"/>
        <statistic-output value="../Odisha_Rasulgarh_Sqare/stats.xml"/>
    </output>

    <processing>
        <ignore-route-errors value="true"/>
        <tls.actuated.jam-threshold value="30"/>
    </processing>

    <routing>
        <device.rerouting.adaptation-steps value="18"/>
        <device.rerouting.adaptation-interval value="10"/>
    </routing>

    <report>
        <verbose value="true"/>
        <duration-log.statistics value="true"/>
        <no-step-log value="true"/>
    </report>

    <traci_server>
        <remote-port value="8813"/>
    </traci_server>

    <gui_only>
        <gui-settings-file value="../Odisha_Rasulgarh_Sqare/osm.view.xml"/>
        <start value="true"/>
    </gui_only>

</sumoConfiguration>
-->

<meandata xmlns:xsi="http://www.w3.org/2001/XMLSchema-instance" xsi:noNamespaceSchemaLocation="http://sumo.dlr.de/xsd/meandata_file.xsd">
    <interval begin="0.00" end="3600.00" id="wizard_example">
        <edge id="-1010473717" sampledSeconds="17.58" traveltime="4.29" overlapTraveltime="5.01" density="0.20" laneDensity="0.20" occupancy="0.09" waitingTime="0.00" timeLoss="9.41" speed="5.99" speedRelative="0.43" departed="2" arrived="1" entered="2" left="3" laneChangedFrom="0" laneChangedTo="0"/>
        <edge id="-1014242886" sampledSeconds="41.11" traveltime="9.84" overlapTraveltime="11.18" density="0.20" laneDensity="0.20" occupancy="0.09" waitingTime="13.00" timeLoss="22.26" speed="5.64" speedRelative="0.41" departed="4" arrived="0" entered="0" left="4" laneChangedFrom="0" laneChangedTo="0"/>
        <edge id="-1014242887" sampledSeconds="3106.85" traveltime="28.34" overlapTraveltime="32.80" density="36.54" laneDensity="36.54" occupancy="16.32" waitingTime="2489.00" timeLoss="2972.45" speed="0.87" speedRelative="0.04" departed="1" arrived="1" entered="94" left="94" laneChangedFrom="0" laneChangedTo="0"/>
        <edge id="-1014249820#0" sampledSeconds="120.30" traveltime="8.01" overlapTraveltime="8.59" density="0.37" laneDensity="0.37" occupancy="0.17" waitingTime="0.00" timeLoss="27.76" speed="11.23" speedRelative="0.81" departed="0" arrived="1" entered="14" left="13" laneChangedFrom="0" laneChangedTo="0"/>
        <edge id="-1014249820#1" sampledSeconds="22.13" traveltime="3.69" overlapTraveltime="4.03" density="0.11" laneDensity="0.11" occupancy="0.05" waitingTime="0.00" timeLoss="0.83" speed="15.02" speedRelative="1.08" departed="6" arrived="0" entered="0" left="6" laneChangedFrom="0" laneChangedTo="0"/>
        <edge id="-1031973271" sampledSeconds="16.56" traveltime="4.97" overlapTraveltime="5.65" density="0.10" laneDensity="0.10" occupancy="0.04" waitingTime="0.00" timeLoss="5.39" speed="9.10" speedRelative="0.65" departed="0" arrived="1" entered="3" left="2" laneChangedFrom="0" laneChangedTo="0"/>
        <edge id="-1031973272" sampledSeconds="27.45" traveltime="8.33" overlapTraveltime="9.15" density="0.09" laneDensity="0.09" occupancy="0.04" waitingTime="0.00" timeLoss="4.55" speed="10.16" speedRelative="0.73" departed="0" arrived="0" entered="3" left="3" laneChangedFrom="0" laneChangedTo="0"/>
        <edge id="-1031973273" sampledSeconds="26.94" traveltime="8.63" overlapTraveltime="9.20" density="0.08" laneDensity="0.08" occupancy="0.04" waitingTime="0.00" timeLoss="6.67" speed="10.28" speedRelative="0.74" departed="1" arrived="2" entered="2" left="1" laneChangedFrom="0" laneChangedTo="0"/>
        <edge id="-1037882881" sampledSeconds="4.15" traveltime="2.25" overlapTraveltime="2.93" density="0.09" laneDensity="0.09" occupancy="0.04" waitingTime="0.00" timeLoss="1.58" speed="6.00" speedRelative="0.43" departed="2" arrived="0" entered="0" left="2" laneChangedFrom="0" laneChangedTo="0"/>
        <edge id="-1037882882" sampledSeconds="17.07" traveltime="3.10" overlapTraveltime="3.94" density="0.26" laneDensity="0.26" occupancy="0.11" waitingTime="0.00" timeLoss="7.64" speed="5.87" speedRelative="0.42" departed="3" arrived="0" entered="2" left="5" laneChangedFrom="0" laneChangedTo="0"/>
        <edge id="-1037882886" sampledSeconds="32.64" traveltime="6.55" overlapTraveltime="8.16" density="0.17" laneDensity="0.17" occupancy="0.07" waitingTime="0.00" timeLoss="12.71" speed="7.34" speedRelative="0.53" departed="0" arrived="0" entered="4" left="4" laneChangedFrom="0" laneChangedTo="0"/>
        <edge id="-1062832920" sampledSeconds="117.07" traveltime="10.69" overlapTraveltime="11.71" density="0.31" laneDensity="0.31" occupancy="0.15" waitingTime="5.00" timeLoss="33.90" speed="9.31" speedRelative="0.67" departed="0" arrived="0" entered="10" left="10" laneChangedFrom="0" laneChangedTo="0"/>
        <edge id="-1063500746" sampledSeconds="171.19" traveltime="1.57" overlapTraveltime="2.06" density="3.88" laneDensity="3.88" occupancy="1.35" waitingTime="0.00" timeLoss="106.44" speed="8.37" speedRelative="0.38" departed="0" arrived="1" entered="83" left="82" laneChangedFrom="0" laneChangedTo="0"/>
        <edge id="-1069590760#0" sampledSeconds="18.45" traveltime="1.41" overlapTraveltime="3.08" density="0.69" laneDensity="0.69" occupancy="0.21" waitingTime="0.00" timeLoss="8.16" speed="4.06" speedRelative="0.29" departed="0" arrived="0" entered="6" left="6" laneChangedFrom="0" laneChangedTo="0"/>
        <edge id="-1069590760#1" sampledSeconds="29.70" traveltime="3.45" overlapTraveltime="3.85" density="0.22" laneDensity="0.22" occupancy="0.10" waitingTime="0.00" timeLoss="6.54" speed="10.86" speedRelative="0.78" departed="2" arrived="2" entered="6" left="6" laneChangedFrom="0" laneChangedTo="0"/>
        <edge id="-1069590760#2" sampledSeconds="41.55" traveltime="2.98" overlapTraveltime="3.46" density="0.36" laneDensity="0.36" occupancy="0.15" waitingTime="0.00" timeLoss="7.79" speed="10.74" speedRelative="0.77" departed="0" arrived="3" entered="12" left="9" laneChangedFrom="0" laneChangedTo="0"/>
        <edge id="-1069590760#3" sampledSeconds="83.98" traveltime="5.05" overlapTraveltime="5.59" density="0.35" laneDensity="0.35" occupancy="0.16" waitingTime="0.00" timeLoss="5.96" speed="12.89" speedRelative="0.93" departed="0" arrived="1" entered="15" left="14" laneChangedFrom="0" laneChangedTo="0"/>
        <edge id="-1069590760#4" sampledSeconds="187.13" traveltime="6.88" overlapTraveltime="7.48" density="0.58" laneDensity="0.58" occupancy="0.27" waitingTime="0.00" timeLoss="14.28" speed="12.65" speedRelative="0.91" departed="0" arrived="2" entered="25" left="23" laneChangedFrom="0" laneChangedTo="0"/>
        <edge id="-1069590760#5" sampledSeconds="224.73" traveltime="5.76" overlapTraveltime="6.25" density="0.82" laneDensity="0.82" occupancy="0.39" waitingTime="0.00" timeLoss="18.59" speed="12.92" speedRelative="0.93" departed="1" arrived="1" entered="35" left="35" laneChangedFrom="0" laneChangedTo="0"/>
        <edge id="-1069590760#6" sampledSeconds="313.47" traveltime="20.08" overlapTraveltime="21.01" density="0.41" laneDensity="0.41" occupancy="0.20" waitingTime="16.00" timeLoss="65.44" speed="10.45" speedRelative="0.75" departed="3" arrived="1" entered="12" left="14" laneChangedFrom="0" laneChangedTo="0"/>
        <edge id="-1069590761" sampledSeconds="40.27" traveltime="9.58" overlapTraveltime="10.19" density="0.11" laneDensity="0.11" occupancy="0.05" waitingTime="0.00" timeLoss="8.93" speed="10.47" speedRelative="0.75" departed="1" arrived="0" entered="3" left="4" laneChangedFrom="0" laneChangedTo="0"/>
        <edge id="-1069590762" sampledSeconds="28.22" traveltime="3.74" overlapTraveltime="4.20" density="0.26" laneDensity="0.26" occupancy="0.11" waitingTime="0.00" timeLoss="10.85" speed="8.44" speedRelative="0.61" departed="2" arrived="0" entered="5" left="7" laneChangedFrom="0" laneChangedTo="0"/>
        <edge id="-1070273296#0" sampledSeconds="32.09" traveltime="6.02" overlapTraveltime="6.42" density="0.12" laneDensity="0.12" occupancy="0.06" waitingTime="0.00" timeLoss="2.76" speed="12.30" speedRelative="0.89" departed="0" arrived="0" entered="5" left="5" laneChangedFrom="0" laneChangedTo="0"/>
        <edge id="-1081390707" sampledSeconds="14.02" traveltime="3.17" overlapTraveltime="3.69" density="0.19" laneDensity="0.19" occupancy="0.08" waitingTime="0.00" timeLoss="6.32" speed="7.04" speedRelative="0.51" departed="1" arrived="0" entered="3" left="4" laneChangedFrom="0" laneChangedTo="0"/>
        <edge id="-1088782478" sampledSeconds="51.71" traveltime="7.12" overlapTraveltime="7.48" density="0.16" laneDensity="0.16" occupancy="0.07" waitingTime="0.00" timeLoss="7.17" speed="12.89" speedRelative="0.93" departed="0" arrived="7" entered="7" left="0" laneChangedFrom="0" laneChangedTo="0"/>
        <edge id="-1089496850#0" sampledSeconds="14.23" traveltime="4.48" overlapTraveltime="4.87" density="0.08" laneDensity="0.08" occupancy="0.04" waitingTime="0.00" timeLoss="2.57" speed="10.60" speedRelative="0.76" departed="0" arrived="3" entered="3" left="0" laneChangedFrom="0" laneChangedTo="0"/>
        <edge id="-1089496850#1" sampledSeconds="7.75" overlapTraveltime="2.33" density="0.86" laneDensity="0.86" occupancy="0.18" waitingTime="0.00" timeLoss="4.43" speed="3.22" speedRelative="0.23" departed="5" arrived="0" entered="0" left="5" laneChangedFrom="0" laneChangedTo="0"/>
        <edge id="-1103712723" sampledSeconds="50.27" traveltime="11.70" overlapTraveltime="13.02" density="0.13" laneDensity="0.13" occupancy="0.06" waitingTime="0.00" timeLoss="15.50" speed="8.46" speedRelative="0.61" departed="3" arrived="0" entered="1" left="4" laneChangedFrom="0" laneChangedTo="0"/>
        <edge id="-1103822285" sampledSeconds="15.63" traveltime="7.41" overlapTraveltime="7.79" density="0.03" laneDensity="0.03" occupancy="0.02" waitingTime="0.00" timeLoss="1.66" speed="17.77" speedRelative="1.28" departed="0" arrived="0" entered="2" left="2" laneChangedFrom="0" laneChangedTo="0"/>
        <edge id="-1103822286" sampledSeconds="11.18" traveltime="5.23" overlapTraveltime="5.75" density="0.04" laneDensity="0.04" occupancy="0.02" waitingTime="0.00" timeLoss="1.55" speed="14.80" speedRelative="1.07" departed="1" arrived="0" entered="1" left="2" laneChangedFrom="0" laneChangedTo="0"/>
        <edge id="-1104677400" sampledSeconds="3.11" traveltime="2.71" overlapTraveltime="3.11" density="0.03" laneDensity="0.03" occupancy="0.01" waitingTime="0.00" timeLoss="1.13" speed="9.72" speedRelative="0.70" departed="0" arrived="1" entered="1" left="0" laneChangedFrom="0" laneChangedTo="0"/>
        <edge id="-1104677401" sampledSeconds="3.16" traveltime="1.35" overlapTraveltime="1.59" density="0.04" laneDensity="0.04" occupancy="0.02" waitingTime="0.00" timeLoss="0.94" speed="16.63" speedRelative="1.20" departed="0" arrived="1" entered="2" left="1" laneChangedFrom="0" laneChangedTo="0"/>
        <edge id="-1105166399" sampledSeconds="36.72" traveltime="18.07" overlapTraveltime="18.89" density="0.06" laneDensity="0.06" occupancy="0.03" waitingTime="0.00" timeLoss="8.54" speed="9.66" speedRelative="0.70" departed="2" arrived="0" entered="0" left="2" laneChangedFrom="0" laneChangedTo="0"/>
        <edge id="-1112869037" sampledSeconds="67.98" traveltime="3.67" overlapTraveltime="4.25" density="0.52" laneDensity="0.52" occupancy="0.23" waitingTime="0.00" timeLoss="22.83" speed="9.68" speedRelative="0.70" departed="0" arrived="3" entered="16" left="13" laneChangedFrom="0" laneChangedTo="0"/>
        <edge id="-1116751009#0" sampledSeconds="15.35" traveltime="0.73" overlapTraveltime="2.19" density="1.09" laneDensity="1.09" occupancy="0.25" waitingTime="0.00" timeLoss="5.63" speed="4.06" speedRelative="0.29" departed="0" arrived="1" entered="7" left="6" laneChangedFrom="0" laneChangedTo="0"/>
        <edge id="-1116751009#1" sampledSeconds="37.57" traveltime="4.96" overlapTraveltime="5.37" density="0.18" laneDensity="0.18" occupancy="0.08" waitingTime="0.00" timeLoss="7.41" speed="11.52" speedRelative="0.83" departed="0" arrived="0" entered="7" left="7" laneChangedFrom="0" laneChangedTo="0"/>
        <edge id="-1118878165" sampledSeconds="139.26" traveltime="6.23" overlapTraveltime="6.96" density="0.67" laneDensity="0.67" occupancy="0.30" waitingTime="0.00" timeLoss="40.02" speed="9.04" speedRelative="0.65" departed="0" arrived="0" entered="20" left="20" laneChangedFrom="0" laneChangedTo="0"/>
        <edge id="-1123238278" sampledSeconds="53.80" traveltime="10.76" overlapTraveltime="11.15" density="0.11" laneDensity="0.11" occupancy="0.05" waitingTime="0.00" timeLoss="2.08" speed="13.15" speedRelative="0.95" departed="5" arrived="0" entered="0" left="5" laneChangedFrom="0" laneChangedTo="0"/>
        <edge id="-1124037096#0" sampledSeconds="2.86" traveltime="1.08" overlapTraveltime="1.50" density="0.06" laneDensity="0.06" occupancy="0.02" waitingTime="0.00" timeLoss="0.13" speed="12.08" speedRelative="0.87" departed="0" arrived="2" entered="2" left="0" laneChangedFrom="0" laneChangedTo="0"/>
        <edge id="-1124037096#1" sampledSeconds="22.06" traveltime="3.03" overlapTraveltime="3.68" density="0.26" laneDensity="0.26" occupancy="0.10" waitingTime="0.00" timeLoss="8.04" speed="7.83" speedRelative="0.56" departed="0" arrived="0" entered="6" left="6" laneChangedFrom="0" laneChangedTo="0"/>
        <edge id="-1125305420" sampledSeconds="14.08" traveltime="6.53" overlapTraveltime="7.40" density="0.08" laneDensity="0.08" occupancy="0.04" waitingTime="0.00" timeLoss="6.22" speed="7.01" speedRelative="0.50" departed="1" arrived="0" entered="1" left="2" laneChangedFrom="0" laneChangedTo="0"/>
        <edge id="-1128732400" sampledSeconds="83.00" traveltime="3.94" overlapTraveltime="4.65" density="0.75" laneDensity="0.75" occupancy="0.32" waitingTime="0.00" timeLoss="31.86" speed="7.68" speedRelative="0.55" departed="1" arrived="0" entered="17" left="18" laneChangedFrom="0" laneChangedTo="0"/>
        <edge id="-1133810439#0" sampledSeconds="107.61" traveltime="9.65" overlapTraveltime="10.76" density="0.41" laneDensity="0.41" occupancy="0.19" waitingTime="15.00" timeLoss="45.43" speed="7.23" speedRelative="0.52" departed="0" arrived="0" entered="10" left="10" laneChangedFrom="0" laneChangedTo="0"/>
        <edge id="-1133810439#1" sampledSeconds="0.00" departed="0" arrived="0" entered="0" left="0" laneChangedFrom="0" laneChangedTo="0"/>
        <edge id="-1133810440#0" sampledSeconds="16.54" traveltime="2.93" overlapTraveltime="3.31" density="0.16" laneDensity="0.16" occupancy="0.07" waitingTime="0.00" timeLoss="5.22" speed="10.23" speedRelative="0.74" departed="0" arrived="5" entered="5" left="0" laneChangedFrom="0" laneChangedTo="0"/>
        <edge id="-1133810440#1" sampledSeconds="17.69" traveltime="2.96" overlapTraveltime="3.67" density="0.24" laneDensity="0.24" occupancy="0.10" waitingTime="0.00" timeLoss="8.28" speed="7.05" speedRelative="0.51" departed="6" arrived="0" entered="0" left="6" laneChangedFrom="0" laneChangedTo="0"/>
        <edge id="-1184120416#0" sampledSeconds="1489.12" traveltime="4.89" overlapTraveltime="5.69" density="9.68" laneDensity="9.68" occupancy="4.32" waitingTime="16.00" timeLoss="471.79" speed="8.40" speedRelative="0.60" departed="1" arrived="0" entered="261" left="262" laneChangedFrom="0" laneChangedTo="0"/>
        <edge id="-1184120416#1" sampledSeconds="1323.36" traveltime="4.52" overlapTraveltime="5.23" density="11.16" laneDensity="11.16" occupancy="4.82" waitingTime="16.00" timeLoss="627.83" speed="7.26" speedRelative="0.52" departed="1" arrived="1" entered="252" left="252" laneChangedFrom="0" laneChangedTo="0"/>
        <edge id="-1194661209" sampledSeconds="82.82" traveltime="2.69" overlapTraveltime="3.45" density="1.25" laneDensity="1.25" occupancy="0.51" waitingTime="3.00" timeLoss="37.77" speed="6.77" speedRelative="0.49" departed="0" arrived="0" entered="24" left="24" laneChangedFrom="0" laneChangedTo="0"/>
        <edge id="-1194669273" sampledSeconds="1033.43" traveltime="6.23" overlapTraveltime="7.44" density="22.05" laneDensity="22.05" occupancy="9.73" waitingTime="464.00" timeLoss="796.62" speed="2.42" speedRelative="0.17" departed="0" arrived="1" entered="140" left="137" laneChangedFrom="0" laneChangedTo="0"/>
        <edge id="-1194720928" sampledSeconds="26.16" traveltime="8.46" overlapTraveltime="9.20" density="0.08" laneDensity="0.08" occupancy="0.04" waitingTime="0.00" timeLoss="5.20" speed="10.60" speedRelative="0.76" departed="3" arrived="0" entered="0" left="3" laneChangedFrom="0" laneChangedTo="0"/>
        <edge id="-1203102057#0" sampledSeconds="8.92" traveltime="4.11" overlapTraveltime="4.46" density="0.04" laneDensity="0.04" occupancy="0.02" waitingTime="0.00" timeLoss="0.29" speed="14.33" speedRelative="1.03" departed="0" arrived="0" entered="2" left="2" laneChangedFrom="0" laneChangedTo="0"/>
        <edge id="-1203102057#1" sampledSeconds="33.37" traveltime="6.33" overlapTraveltime="6.88" density="0.15" laneDensity="0.15" occupancy="0.07" waitingTime="0.00" timeLoss="9.67" speed="9.78" speedRelative="0.70" departed="2" arrived="1" entered="3" left="4" laneChangedFrom="0" laneChangedTo="0"/>
        <edge id="-1203407243" sampledSeconds="5.23" traveltime="2.35" overlapTraveltime="2.83" density="0.07" laneDensity="0.07" occupancy="0.03" waitingTime="0.00" timeLoss="1.10" speed="9.47" speedRelative="0.68" departed="0" arrived="2" entered="2" left="0" laneChangedFrom="0" laneChangedTo="0"/>
        <edge id="-1209009345" sampledSeconds="120.40" traveltime="14.82" overlapTraveltime="15.07" density="0.13" laneDensity="0.13" occupancy="0.06" waitingTime="0.00" timeLoss="21.85" speed="17.08" speedRelative="0.77" departed="0" arrived="2" entered="8" left="6" laneChangedFrom="0" laneChangedTo="0"/>
        <edge id="-1230825178" sampledSeconds="13.89" traveltime="4.31" overlapTraveltime="4.70" density="0.08" laneDensity="0.08" occupancy="0.04" waitingTime="0.00" timeLoss="3.19" speed="10.74" speedRelative="0.77" departed="0" arrived="3" entered="3" left="0" laneChangedFrom="0" laneChangedTo="0"/>
        <edge id="-1234980578#0" sampledSeconds="20.72" traveltime="4.62" overlapTraveltime="5.18" density="0.12" laneDensity="0.12" occupancy="0.05" waitingTime="0.00" timeLoss="4.79" speed="10.38" speedRelative="0.75" departed="0" arrived="0" entered="4" left="4" laneChangedFrom="0" laneChangedTo="0"/>
        <edge id="-1234980578#1" sampledSeconds="30.58" traveltime="3.99" overlapTraveltime="4.48" density="0.19" laneDensity="0.19" occupancy="0.09" waitingTime="0.00" timeLoss="5.72" speed="10.93" speedRelative="0.79" departed="1" arrived="1" entered="6" left="6" laneChangedFrom="0" laneChangedTo="0"/>
        <edge id="-1234980578#2" sampledSeconds="31.02" traveltime="3.97" overlapTraveltime="4.50" density="0.19" laneDensity="0.19" occupancy="0.09" waitingTime="0.00" timeLoss="4.79" speed="11.18" speedRelative="0.81" departed="1" arrived="0" entered="6" left="7" laneChangedFrom="0" laneChangedTo="0"/>
        <edge id="-1234980578#3" sampledSeconds="12.40" traveltime="1.10" overlapTraveltime="1.55" density="0.26" laneDensity="0.26" occupancy="0.09" waitingTime="0.00" timeLoss="1.56" speed="11.84" speedRelative="0.85" departed="0" arrived="1" entered="8" left="7" laneChangedFrom="0" laneChangedTo="0"/>
        <edge id="-1234980578#4" sampledSeconds="22.13" traveltime="1.86" overlapTraveltime="2.24" density="0.32" laneDensity="0.32" occupancy="0.13" waitingTime="0.00" timeLoss="6.08" speed="10.94" speedRelative="0.79" departed="2" arrived="3" entered="9" left="7" laneChangedFrom="0" laneChangedTo="0"/>
        <edge id="-1234980578#5" sampledSeconds="28.42" traveltime="3.14" overlapTraveltime="3.59" density="0.20" laneDensity="0.20" occupancy="0.09" waitingTime="0.00" timeLoss="3.89" speed="12.31" speedRelative="0.89" departed="1" arrived="0" entered="7" left="8" laneChangedFrom="0" laneChangedTo="0"/>
        <edge id="-1234980579#0" sampledSeconds="21.75" traveltime="2.08" overlapTraveltime="2.51" density="0.28" laneDensity="0.28" occupancy="0.12" waitingTime="0.00" timeLoss="5.63" speed="10.58" speedRelative="0.76" departed="1" arrived="1" entered="8" left="8" laneChangedFrom="0" laneChangedTo="0"/>
        <edge id="-1234980579#1" sampledSeconds="50.64" traveltime="4.19" overlapTraveltime="4.64" density="0.32" laneDensity="0.32" occupancy="0.14" waitingTime="0.00" timeLoss="13.18" speed="10.43" speedRelative="0.75" departed="1" arrived="2" entered="10" left="9" laneChangedFrom="0" laneChangedTo="0"/>
        <edge id="-1353599544" sampledSeconds="21.83" traveltime="7.30" overlapTraveltime="7.68" density="0.07" laneDensity="0.07" occupancy="0.03" waitingTime="0.00" timeLoss="1.23" speed="12.76" speedRelative="0.92" departed="3" arrived="0" entered="0" left="3" laneChangedFrom="0" laneChangedTo="0"/>
        <edge id="-1386043220" sampledSeconds="2.27" traveltime="1.86" overlapTraveltime="2.27" density="0.03" laneDensity="0.03" occupancy="0.01" waitingTime="0.00" timeLoss="0.72" speed="10.38" speedRelative="0.75" departed="0" arrived="1" entered="1" left="0" laneChangedFrom="0" laneChangedTo="0"/>
        <edge id="-1388249679" sampledSeconds="11.06" traveltime="5.09" overlapTraveltime="6.08" density="0.06" laneDensity="0.06" occupancy="0.03" waitingTime="0.00" timeLoss="2.04" speed="9.23" speedRelative="0.66" departed="2" arrived="0" entered="0" left="2" laneChangedFrom="0" laneChangedTo="0"/>
        <edge id="-1390881590" sampledSeconds="35.07" traveltime="6.81" overlapTraveltime="7.18" density="0.11" laneDensity="0.11" occupancy="0.05" waitingTime="0.00" timeLoss="2.67" speed="13.09" speedRelative="0.94" departed="0" arrived="5" entered="5" left="0" laneChangedFrom="0" laneChangedTo="0"/>
        <edge id="-1391510254" sampledSeconds="42.87" traveltime="8.31" overlapTraveltime="9.22" density="0.18" laneDensity="0.18" occupancy="0.08" waitingTime="9.00" timeLoss="17.82" speed="7.87" speedRelative="0.57" departed="5" arrived="0" entered="0" left="5" laneChangedFrom="0" laneChangedTo="0"/>
        <edge id="-1392047843" sampledSeconds="43.16" traveltime="42.64" overlapTraveltime="43.52" density="0.02" laneDensity="0.02" occupancy="0.01" waitingTime="0.00" timeLoss="3.53" speed="14.14" speedRelative="1.02" departed="1" arrived="0" entered="0" left="1" laneChangedFrom="0" laneChangedTo="0"/>
        <edge id="-1426003902" sampledSeconds="10.68" traveltime="0.03" overlapTraveltime="0.77" density="14.84" laneDensity="14.84" occupancy="0.29" waitingTime="0.00" timeLoss="7.42" speed="6.75" speedRelative="0.30" departed="0" arrived="1" entered="14" left="13" laneChangedFrom="0" laneChangedTo="0"/>
        <edge id="-1426003904" sampledSeconds="0.23" traveltime="0.03" overlapTraveltime="0.79" density="0.31" laneDensity="0.31" occupancy="0.01" waitingTime="0.00" timeLoss="0.12" speed="6.55" speedRelative="0.47" departed="0" arrived="1" entered="1" left="0" laneChangedFrom="0" laneChangedTo="0"/>
        <edge id="-234379809#1" sampledSeconds="160.15" traveltime="8.64" overlapTraveltime="9.42" density="0.45" laneDensity="0.45" occupancy="0.21" waitingTime="0.00" timeLoss="27.69" speed="11.05" speedRelative="0.80" departed="0" arrived="0" entered="17" left="17" laneChangedFrom="0" laneChangedTo="0"/>
        <edge id="-234379809#2" sampledSeconds="128.94" traveltime="7.21" overlapTraveltime="7.58" density="0.38" laneDensity="0.38" occupancy="0.18" waitingTime="0.00" timeLoss="8.53" speed="13.05" speedRelative="0.94" departed="0" arrived="1" entered="17" left="16" laneChangedFrom="0" laneChangedTo="0"/>
        <edge id="-234379809#7" sampledSeconds="706.51" traveltime="40.12" overlapTraveltime="40.52" density="0.39" laneDensity="0.39" occupancy="0.19" waitingTime="0.00" timeLoss="66.84" speed="12.39" speedRelative="0.89" departed="1" arrived="2" entered="17" left="15" laneChangedFrom="0" laneChangedTo="0"/>
        <edge id="-26754114#0" sampledSeconds="23.20" traveltime="1.99" overlapTraveltime="2.70" density="0.36" laneDensity="0.36" occupancy="0.14" waitingTime="0.00" timeLoss="6.85" speed="8.50" speedRelative="0.61" departed="1" arrived="2" entered="8" left="7" laneChangedFrom="0" laneChangedTo="0"/>
        <edge id="-26754114#1" sampledSeconds="40.67" traveltime="4.70" overlapTraveltime="5.08" density="0.20" laneDensity="0.20" occupancy="0.09" waitingTime="0.00" timeLoss="3.82" speed="12.31" speedRelative="0.89" departed="0" arrived="1" entered="8" left="7" laneChangedFrom="0" laneChangedTo="0"/>
        <edge id="-26754114#2" sampledSeconds="44.27" traveltime="3.98" overlapTraveltime="4.48" density="0.27" laneDensity="0.27" occupancy="0.12" waitingTime="0.00" timeLoss="5.53" speed="11.34" speedRelative="0.82" departed="1" arrived="2" entered="9" left="8" laneChangedFrom="0" laneChangedTo="0"/>
        <edge id="-26754114#3" sampledSeconds="48.24" traveltime="2.39" overlapTraveltime="2.84" density="0.69" laneDensity="0.69" occupancy="0.27" waitingTime="0.00" timeLoss="17.54" speed="8.65" speedRelative="0.62" departed="0" arrived="1" entered="17" left="16" laneChangedFrom="0" laneChangedTo="0"/>
        <edge id="-26754131" sampledSeconds="26.03" traveltime="8.18" overlapTraveltime="8.68" density="0.07" laneDensity="0.07" occupancy="0.04" waitingTime="0.00" timeLoss="2.57" speed="11.83" speedRelative="0.85" departed="0" arrived="1" entered="3" left="2" laneChangedFrom="0" laneChangedTo="0"/>
        <edge id="-26754140#0" sampledSeconds="39.53" traveltime="9.69" overlapTraveltime="9.93" density="0.06" laneDensity="0.06" occupancy="0.03" waitingTime="0.00" timeLoss="1.16" speed="20.18" speedRelative="0.91" departed="0" arrived="4" entered="4" left="0" laneChangedFrom="0" laneChangedTo="0"/>
        <edge id="-26754140#1" sampledSeconds="68.58" traveltime="6.24" overlapTraveltime="6.93" density="0.21" laneDensity="0.21" occupancy="0.10" waitingTime="0.00" timeLoss="20.25" speed="13.93" speedRelative="0.63" departed="2" arrived="1" entered="8" left="9" laneChangedFrom="0" laneChangedTo="0"/>
        <edge id="-26754140#2" sampledSeconds="69.56" traveltime="5.89" overlapTraveltime="6.32" density="0.21" laneDensity="0.21" occupancy="0.10" waitingTime="0.00" timeLoss="16.59" speed="15.54" speedRelative="0.70" departed="0" arrived="0" entered="11" left="11" laneChangedFrom="0" laneChangedTo="0"/>
        <edge id="-26754150#0" sampledSeconds="6.90" traveltime="2.65" overlapTraveltime="3.45" density="0.09" laneDensity="0.09" occupancy="0.04" waitingTime="0.00" timeLoss="2.22" speed="7.45" speedRelative="0.54" departed="0" arrived="0" entered="2" left="2" laneChangedFrom="0" laneChangedTo="0"/>
        <edge id="-26754150#1" sampledSeconds="10.07" traveltime="9.90" overlapTraveltime="10.28" density="0.02" laneDensity="0.02" occupancy="0.01" waitingTime="0.00" timeLoss="2.08" speed="12.34" speedRelative="0.89" departed="0" arrived="1" entered="1" left="0" laneChangedFrom="0" laneChangedTo="0"/>
        <edge id="-26754158#0" sampledSeconds="32.49" traveltime="10.34" overlapTraveltime="10.95" density="0.07" laneDensity="0.07" occupancy="0.03" waitingTime="0.00" timeLoss="4.25" speed="12.23" speedRelative="0.88" departed="0" arrived="1" entered="3" left="2" laneChangedFrom="0" laneChangedTo="0"/>
        <edge id="-26754158#1" sampledSeconds="11.94" traveltime="5.62" overlapTraveltime="5.97" density="0.05" laneDensity="0.05" occupancy="0.02" waitingTime="0.00" timeLoss="1.36" speed="13.14" speedRelative="0.95" departed="0" arrived="0" entered="2" left="2" laneChangedFrom="0" laneChangedTo="0"/>
        <edge id="-26754171" sampledSeconds="24.19" traveltime="11.64" overlapTraveltime="12.33" density="0.05" laneDensity="0.05" occupancy="0.03" waitingTime="0.00" timeLoss="5.54" speed="10.74" speedRelative="0.77" departed="1" arrived="0" entered="1" left="2" laneChangedFrom="0" laneChangedTo="0"/>
        <edge id="-26754175" sampledSeconds="0.00" departed="0" arrived="0" entered="0" left="0" laneChangedFrom="0" laneChangedTo="0"/>
        <edge id="-26754182#0" sampledSeconds="46.35" traveltime="8.76" overlapTraveltime="9.30" density="0.10" laneDensity="0.10" occupancy="0.05" waitingTime="0.00" timeLoss="5.45" speed="14.34" speedRelative="1.03" departed="0" arrived="2" entered="5" left="3" laneChangedFrom="0" laneChangedTo="0"/>
        <edge id="-26754182#1" sampledSeconds="22.86" traveltime="4.09" overlapTraveltime="4.56" density="0.11" laneDensity="0.11" occupancy="0.05" waitingTime="0.00" timeLoss="2.35" speed="14.09" speedRelative="1.01" departed="0" arrived="0" entered="5" left="5" laneChangedFrom="0" laneChangedTo="0"/>
        <edge id="-26754182#2" sampledSeconds="18.52" traveltime="3.37" overlapTraveltime="3.69" density="0.10" laneDensity="0.10" occupancy="0.05" waitingTime="0.00" timeLoss="1.00" speed="15.27" speedRelative="1.10" departed="0" arrived="0" entered="5" left="5" laneChangedFrom="0" laneChangedTo="0"/>
        <edge id="-26754182#3" sampledSeconds="32.83" traveltime="1.53" overlapTraveltime="2.25" density="0.74" laneDensity="0.74" occupancy="0.27" waitingTime="0.00" timeLoss="11.06" speed="7.70" speedRelative="0.55" departed="1" arrived="1" entered="14" left="14" laneChangedFrom="0" laneChangedTo="0"/>