<?xml version="1.0" encoding="UTF-8"?>

<!-- generated on 2025-09-21 02:38:49 by Eclipse SUMO GUI Version 1.24.0
<sumoConfiguration xmlns:xsi="http://www.w3.org/2001/XMLSchema-instance" xsi:noNamespaceSchemaLocation="http://sumo.dlr.de/xsd/sumoConfiguration.xsd">

    <input>
        <net-file value="../Odisha_Rasulgarh_Sqare/osm.net.xml.gz"/>
        <route-files value="../Odisha_Rasulgarh_Sqare/osm.passenger.trips.xml"/>
        <additional-files value="../Odisha_Rasulgarh_Sqare/osm.poly.xml.gz,../Odisha_Rasulgarh_Sqare/output.add.xml"/>
    </input>

    <output>
        <summary-output value="outputs/odisha_after_ai_summary.xml"/>
        <tripinfo-output value="outputs/odisha_after_ai_tripinfo.xml"/>
        <statistic-output value="../Odisha_Rasulgarh_Sqare/stats.xml"/>
    </output>

    <processing>
        <ignore-route-errors value="true"/>
        <tls.actuated.jam-threshold value="30"/>
    </processing>

    <routing>
        <device.rerouting.adaptation-steps value="18"/>
        <device.rerouting.adaptation-interval value="10"/>
    </routing>

    <report>
        <verbose value="true"/>
        <duration-log.statistics value="true"/>
        <no-step-log value="true"/>
    </report>

    <traci_server>
        <remote-port value="8813"/>
    </traci_server>

    <gui_only>
        <gui-settings-file value="../Odisha_Rasulgarh_Sqare/osm.view.xml"/>
        <start value="true"/>
    </gui_only>

</sumoConfiguration>
-->

<meandata xmlns:xsi="http://www.w3.org/2001/XMLSchema-instance" xsi:noNamespaceSchemaLocation="http://sumo.dlr.de/xsd/meandata_file.xsd">
    <interval begin="0.00" end="3600.00" id="wizard_example">
        <edge id="-1010473717" sampledSeconds="14.78" traveltime="4.97" overlapTraveltime="5.56" density="0.16" laneDensity="0.16" occupancy="0.07" waitingTime="0.00" timeLoss="8.54" speed="5.40" speedRelative="0.39" departed="2" arrived="1" entered="1" left="2" laneChangedFrom="0" laneChangedTo="0"/>
        <edge id="-1014242886" sampledSeconds="33.27" traveltime="6.34" overlapTraveltime="7.27" density="0.16" laneDensity="0.16" occupancy="0.08" waitingTime="2.00" timeLoss="11.39" speed="8.70" speedRelative="0.63" departed="5" arrived="0" entered="0" left="5" laneChangedFrom="0" laneChangedTo="0"/>
        <edge id="-1014242887" sampledSeconds="1965.21" traveltime="16.96" overlapTraveltime="18.05" density="23.11" laneDensity="23.11" occupancy="10.99" waitingTime="1312.00" timeLoss="1812.40" speed="1.59" speedRelative="0.07" departed="1" arrived="1" entered="108" left="108" laneChangedFrom="0" laneChangedTo="0"/>
        <edge id="-1014249820#0" sampledSeconds="121.90" traveltime="8.07" overlapTraveltime="8.71" density="0.37" laneDensity="0.37" occupancy="0.17" waitingTime="0.00" timeLoss="29.37" speed="11.08" speedRelative="0.80" departed="0" arrived="1" entered="14" left="13" laneChangedFrom="0" laneChangedTo="0"/>
        <edge id="-1014249820#1" sampledSeconds="22.32" traveltime="3.73" overlapTraveltime="4.06" density="0.11" laneDensity="0.11" occupancy="0.05" waitingTime="0.00" timeLoss="1.01" speed="14.89" speedRelative="1.07" departed="6" arrived="0" entered="0" left="6" laneChangedFrom="0" laneChangedTo="0"/>
        <edge id="-1031973271" sampledSeconds="17.17" traveltime="5.10" overlapTraveltime="5.72" density="0.10" laneDensity="0.10" occupancy="0.05" waitingTime="0.00" timeLoss="6.03" speed="8.99" speedRelative="0.65" departed="0" arrived="1" entered="3" left="2" laneChangedFrom="0" laneChangedTo="0"/>
        <edge id="-1031973272" sampledSeconds="27.79" traveltime="8.41" overlapTraveltime="9.26" density="0.09" laneDensity="0.09" occupancy="0.04" waitingTime="0.00" timeLoss="5.12" speed="10.03" speedRelative="0.72" departed="0" arrived="0" entered="3" left="3" laneChangedFrom="0" laneChangedTo="0"/>
        <edge id="-1031973273" sampledSeconds="26.85" traveltime="8.58" overlapTraveltime="9.11" density="0.08" laneDensity="0.08" occupancy="0.04" waitingTime="0.00" timeLoss="6.43" speed="10.38" speedRelative="0.75" departed="1" arrived="2" entered="2" left="1" laneChangedFrom="0" laneChangedTo="0"/>
        <edge id="-1037882881" sampledSeconds="4.13" traveltime="2.23" overlapTraveltime="2.91" density="0.09" laneDensity="0.09" occupancy="0.04" waitingTime="0.00" timeLoss="1.54" speed="6.04" speedRelative="0.44" departed="2" arrived="0" entered="0" left="2" laneChangedFrom="0" laneChangedTo="0"/>
        <edge id="-1037882882" sampledSeconds="17.35" traveltime="3.19" overlapTraveltime="4.00" density="0.27" laneDensity="0.27" occupancy="0.11" waitingTime="0.00" timeLoss="8.12" speed="5.78" speedRelative="0.42" departed="3" arrived="0" entered="2" left="5" laneChangedFrom="0" laneChangedTo="0"/>
        <edge id="-1037882886" sampledSeconds="33.23" traveltime="6.57" overlapTraveltime="8.31" density="0.17" laneDensity="0.17" occupancy="0.07" waitingTime="0.00" timeLoss="13.20" speed="7.21" speedRelative="0.52" departed="0" arrived="0" entered="4" left="4" laneChangedFrom="0" laneChangedTo="0"/>
        <edge id="-1062832920" sampledSeconds="107.05" traveltime="9.71" overlapTraveltime="10.70" density="0.29" laneDensity="0.29" occupancy="0.13" waitingTime="1.00" timeLoss="23.16" speed="10.18" speedRelative="0.73" departed="0" arrived="0" entered="10" left="10" laneChangedFrom="0" laneChangedTo="0"/>
        <edge id="-1063500746" sampledSeconds="171.60" traveltime="1.62" overlapTraveltime="2.12" density="3.89" laneDensity="3.89" occupancy="1.35" waitingTime="0.00" timeLoss="107.21" speed="8.13" speedRelative="0.37" departed="0" arrived="1" entered="81" left="80" laneChangedFrom="0" laneChangedTo="0"/>
        <edge id="-1069590760#0" sampledSeconds="18.22" traveltime="1.39" overlapTraveltime="3.04" density="0.68" laneDensity="0.68" occupancy="0.21" waitingTime="0.00" timeLoss="8.58" speed="4.11" speedRelative="0.30" departed="0" arrived="0" entered="6" left="6" laneChangedFrom="0" laneChangedTo="0"/>
        <edge id="-1069590760#1" sampledSeconds="32.57" traveltime="3.72" overlapTraveltime="4.24" density="0.25" laneDensity="0.25" occupancy="0.11" waitingTime="0.00" timeLoss="9.53" speed="9.85" speedRelative="0.71" departed="2" arrived="2" entered="6" left="6" laneChangedFrom="0" laneChangedTo="0"/>
        <edge id="-1069590760#2" sampledSeconds="42.50" traveltime="3.06" overlapTraveltime="3.55" density="0.37" laneDensity="0.37" occupancy="0.16" waitingTime="0.00" timeLoss="8.44" speed="10.47" speedRelative="0.75" departed="0" arrived="3" entered="12" left="9" laneChangedFrom="0" laneChangedTo="0"/>
        <edge id="-1069590760#3" sampledSeconds="82.41" traveltime="5.30" overlapTraveltime="5.89" density="0.34" laneDensity="0.34" occupancy="0.16" waitingTime="0.00" timeLoss="5.78" speed="12.25" speedRelative="0.88" departed="0" arrived="1" entered="14" left="13" laneChangedFrom="0" laneChangedTo="0"/>
        <edge id="-1069590760#4" sampledSeconds="183.19" traveltime="7.04" overlapTraveltime="7.64" density="0.57" laneDensity="0.57" occupancy="0.27" waitingTime="0.00" timeLoss="12.64" speed="12.38" speedRelative="0.89" departed="0" arrived="2" entered="24" left="22" laneChangedFrom="0" laneChangedTo="0"/>
        <edge id="-1069590760#5" sampledSeconds="212.42" traveltime="5.95" overlapTraveltime="6.46" density="0.78" laneDensity="0.78" occupancy="0.36" waitingTime="0.00" timeLoss="15.86" speed="12.50" speedRelative="0.90" departed="1" arrived="1" entered="32" left="32" laneChangedFrom="0" laneChangedTo="0"/>
        <edge id="-1069590760#6" sampledSeconds="307.16" traveltime="19.64" overlapTraveltime="20.58" density="0.40" laneDensity="0.40" occupancy="0.19" waitingTime="10.00" timeLoss="58.91" speed="10.67" speedRelative="0.77" departed="3" arrived="1" entered="12" left="14" laneChangedFrom="0" laneChangedTo="0"/>
        <edge id="-1069590761" sampledSeconds="39.25" traveltime="9.34" overlapTraveltime="9.93" density="0.11" laneDensity="0.11" occupancy="0.05" waitingTime="0.00" timeLoss="7.67" speed="10.75" speedRelative="0.77" departed="1" arrived="0" entered="3" left="4" laneChangedFrom="0" laneChangedTo="0"/>
        <edge id="-1069590762" sampledSeconds="27.36" traveltime="3.61" overlapTraveltime="4.08" density="0.25" laneDensity="0.25" occupancy="0.11" waitingTime="0.00" timeLoss="10.02" speed="8.70" speedRelative="0.63" departed="2" arrived="0" entered="5" left="7" laneChangedFrom="0" laneChangedTo="0"/>
        <edge id="-1070273296#0" sampledSeconds="32.77" traveltime="6.17" overlapTraveltime="6.55" density="0.12" laneDensity="0.12" occupancy="0.06" waitingTime="0.00" timeLoss="3.44" speed="12.04" speedRelative="0.87" departed="0" arrived="0" entered="5" left="5" laneChangedFrom="0" laneChangedTo="0"/>
        <edge id="-1081390707" sampledSeconds="18.87" traveltime="2.79" overlapTraveltime="3.25" density="0.25" laneDensity="0.25" occupancy="0.10" waitingTime="0.00" timeLoss="7.32" speed="7.98" speedRelative="0.57" departed="1" arrived="0" entered="5" left="6" laneChangedFrom="0" laneChangedTo="0"/>
        <edge id="-1088782478" sampledSeconds="44.08" traveltime="7.00" overlapTraveltime="7.35" density="0.13" laneDensity="0.13" occupancy="0.06" waitingTime="0.00" timeLoss="5.65" speed="13.11" speedRelative="0.94" departed="0" arrived="6" entered="6" left="0" laneChangedFrom="0" laneChangedTo="0"/>
        <edge id="-1089496850#0" sampledSeconds="9.23" traveltime="4.38" overlapTraveltime="4.80" density="0.05" laneDensity="0.05" occupancy="0.03" waitingTime="0.00" timeLoss="1.28" speed="10.76" speedRelative="0.77" departed="0" arrived="2" entered="2" left="0" laneChangedFrom="0" laneChangedTo="0"/>
        <edge id="-1089496850#1" sampledSeconds="7.49" overlapTraveltime="2.25" density="0.83" laneDensity="0.83" occupancy="0.17" waitingTime="0.00" timeLoss="4.17" speed="3.34" speedRelative="0.24" departed="5" arrived="0" entered="0" left="5" laneChangedFrom="0" laneChangedTo="0"/>
        <edge id="-1103712723" sampledSeconds="50.36" traveltime="11.87" overlapTraveltime="13.04" density="0.13" laneDensity="0.13" occupancy="0.06" waitingTime="0.00" timeLoss="15.22" speed="8.44" speedRelative="0.61" departed="3" arrived="0" entered="1" left="4" laneChangedFrom="0" laneChangedTo="0"/>
        <edge id="-1103822285" sampledSeconds="12.98" traveltime="12.31" overlapTraveltime="12.98" density="0.03" laneDensity="0.03" occupancy="0.01" waitingTime="0.00" timeLoss="2.36" speed="10.64" speedRelative="0.77" departed="0" arrived="0" entered="1" left="1" laneChangedFrom="0" laneChangedTo="0"/>
        <edge id="-1103822286" sampledSeconds="7.91" traveltime="7.60" overlapTraveltime="8.41" density="0.03" laneDensity="0.03" occupancy="0.01" waitingTime="0.00" timeLoss="1.41" speed="10.07" speedRelative="0.72" departed="1" arrived="0" entered="0" left="1" laneChangedFrom="0" laneChangedTo="0"/>
        <edge id="-1104677400" sampledSeconds="3.16" traveltime="2.73" overlapTraveltime="3.18" density="0.03" laneDensity="0.03" occupancy="0.01" waitingTime="0.00" timeLoss="1.19" speed="9.53" speedRelative="0.69" departed="0" arrived="1" entered="1" left="0" laneChangedFrom="0" laneChangedTo="0"/>
        <edge id="-1104677401" sampledSeconds="2.75" traveltime="2.29" overlapTraveltime="2.75" density="0.04" laneDensity="0.04" occupancy="0.01" waitingTime="0.00" timeLoss="1.08" speed="9.49" speedRelative="0.68" departed="0" arrived="1" entered="1" left="0" laneChangedFrom="0" laneChangedTo="0"/>
        <edge id="-1105166399" sampledSeconds="36.42" traveltime="17.93" overlapTraveltime="18.74" density="0.06" laneDensity="0.06" occupancy="0.03" waitingTime="0.00" timeLoss="8.31" speed="9.74" speedRelative="0.70" departed="2" arrived="0" entered="0" left="2" laneChangedFrom="0" laneChangedTo="0"/>
        <edge id="-1112869037" sampledSeconds="69.41" traveltime="3.73" overlapTraveltime="4.34" density="0.53" laneDensity="0.53" occupancy="0.23" waitingTime="0.00" timeLoss="24.32" speed="9.47" speedRelative="0.68" departed="0" arrived="3" entered="16" left="13" laneChangedFrom="0" laneChangedTo="0"/>
        <edge id="-1116751009#0" sampledSeconds="14.60" traveltime="0.75" overlapTraveltime="2.09" density="1.04" laneDensity="1.04" occupancy="0.24" waitingTime="0.00" timeLoss="5.63" speed="4.27" speedRelative="0.31" departed="0" arrived="1" entered="7" left="6" laneChangedFrom="0" laneChangedTo="0"/>
        <edge id="-1116751009#1" sampledSeconds="36.29" traveltime="4.80" overlapTraveltime="5.18" density="0.18" laneDensity="0.18" occupancy="0.08" waitingTime="0.00" timeLoss="6.14" speed="11.93" speedRelative="0.86" departed="0" arrived="0" entered="7" left="7" laneChangedFrom="0" laneChangedTo="0"/>
        <edge id="-1118878165" sampledSeconds="142.01" traveltime="6.34" overlapTraveltime="7.10" density="0.68" laneDensity="0.68" occupancy="0.31" waitingTime="0.00" timeLoss="43.85" speed="8.87" speedRelative="0.64" departed="0" arrived="0" entered="20" left="20" laneChangedFrom="0" laneChangedTo="0"/>
        <edge id="-1123238278" sampledSeconds="54.25" traveltime="10.85" overlapTraveltime="11.24" density="0.11" laneDensity="0.11" occupancy="0.05" waitingTime="0.00" timeLoss="2.54" speed="13.04" speedRelative="0.94" departed="5" arrived="0" entered="0" left="5" laneChangedFrom="0" laneChangedTo="0"/>
        <edge id="-1124037096#0" sampledSeconds="2.95" traveltime="1.08" overlapTraveltime="1.48" density="0.06" laneDensity="0.06" occupancy="0.02" waitingTime="0.00" timeLoss="0.09" speed="12.27" speedRelative="0.88" departed="0" arrived="2" entered="2" left="0" laneChangedFrom="0" laneChangedTo="0"/>
        <edge id="-1124037096#1" sampledSeconds="27.70" traveltime="3.20" overlapTraveltime="3.96" density="0.32" laneDensity="0.32" occupancy="0.13" waitingTime="0.00" timeLoss="10.51" speed="7.28" speedRelative="0.52" departed="0" arrived="0" entered="7" left="7" laneChangedFrom="0" laneChangedTo="0"/>
        <edge id="-1125305420" sampledSeconds="13.90" traveltime="6.47" overlapTraveltime="7.31" density="0.08" laneDensity="0.08" occupancy="0.04" waitingTime="0.00" timeLoss="5.70" speed="7.10" speedRelative="0.51" departed="1" arrived="0" entered="1" left="2" laneChangedFrom="0" laneChangedTo="0"/>
        <edge id="-1128732400" sampledSeconds="81.78" traveltime="3.89" overlapTraveltime="4.58" density="0.74" laneDensity="0.74" occupancy="0.32" waitingTime="0.00" timeLoss="30.43" speed="7.80" speedRelative="0.56" departed="1" arrived="0" entered="17" left="18" laneChangedFrom="0" laneChangedTo="0"/>
        <edge id="-1133810439#0" sampledSeconds="81.96" traveltime="7.40" overlapTraveltime="8.20" density="0.31" laneDensity="0.31" occupancy="0.14" waitingTime="0.00" timeLoss="19.95" speed="9.49" speedRelative="0.68" departed="0" arrived="0" entered="10" left="10" laneChangedFrom="0" laneChangedTo="0"/>
        <edge id="-1133810439#1" sampledSeconds="0.00" departed="0" arrived="0" entered="0" left="0" laneChangedFrom="0" laneChangedTo="0"/>
        <edge id="-1133810440#0" sampledSeconds="17.15" traveltime="3.11" overlapTraveltime="3.54" density="0.16" laneDensity="0.16" occupancy="0.07" waitingTime="0.00" timeLoss="6.18" speed="9.57" speedRelative="0.69" departed="0" arrived="5" entered="5" left="0" laneChangedFrom="0" laneChangedTo="0"/>
        <edge id="-1133810440#1" sampledSeconds="17.72" traveltime="2.97" overlapTraveltime="3.68" density="0.24" laneDensity="0.24" occupancy="0.10" waitingTime="0.00" timeLoss="8.31" speed="7.04" speedRelative="0.51" departed="6" arrived="0" entered="0" left="6" laneChangedFrom="0" laneChangedTo="0"/>
        <edge id="-1184120416#0" sampledSeconds="3333.80" traveltime="12.52" overlapTraveltime="13.34" density="21.68" laneDensity="21.68" occupancy="10.31" waitingTime="1779.00" timeLoss="2362.48" speed="3.58" speedRelative="0.26" departed="1" arrived="0" entered="249" left="250" laneChangedFrom="0" laneChangedTo="0"/>
        <edge id="-1184120416#1" sampledSeconds="2205.26" traveltime="8.52" overlapTraveltime="9.27" density="18.60" laneDensity="18.60" occupancy="8.56" waitingTime="899.00" timeLoss="1550.46" speed="4.09" speedRelative="0.29" departed="1" arrived="1" entered="237" left="237" laneChangedFrom="0" laneChangedTo="0"/>
        <edge id="-1194661209" sampledSeconds="58.02" traveltime="3.10" overlapTraveltime="3.92" density="0.88" laneDensity="0.88" occupancy="0.37" waitingTime="3.00" timeLoss="30.32" speed="5.96" speedRelative="0.43" departed="0" arrived="0" entered="15" left="14" laneChangedFrom="0" laneChangedTo="0"/>
        <edge id="-1194669273" sampledSeconds="1052.36" traveltime="7.61" overlapTraveltime="8.83" density="22.45" laneDensity="22.45" occupancy="10.13" waitingTime="584.00" timeLoss="850.99" speed="2.04" speedRelative="0.15" departed="0" arrived="1" entered="120" left="117" laneChangedFrom="0" laneChangedTo="0"/>
        <edge id="-1194720928" sampledSeconds="25.87" traveltime="8.43" overlapTraveltime="9.10" density="0.08" laneDensity="0.08" occupancy="0.04" waitingTime="0.00" timeLoss="4.91" speed="10.72" speedRelative="0.77" departed="3" arrived="0" entered="0" left="3" laneChangedFrom="0" laneChangedTo="0"/>
        <edge id="-1203102057#0" sampledSeconds="14.27" traveltime="4.39" overlapTraveltime="4.76" density="0.07" laneDensity="0.07" occupancy="0.03" waitingTime="0.00" timeLoss="0.68" speed="13.43" speedRelative="0.97" departed="0" arrived="0" entered="3" left="3" laneChangedFrom="0" laneChangedTo="0"/>
        <edge id="-1203102057#1" sampledSeconds="31.39" traveltime="6.05" overlapTraveltime="6.47" density="0.14" laneDensity="0.14" occupancy="0.07" waitingTime="0.00" timeLoss="7.71" speed="10.40" speedRelative="0.75" departed="2" arrived="1" entered="3" left="4" laneChangedFrom="0" laneChangedTo="0"/>
        <edge id="-1203407243" sampledSeconds="2.77" traveltime="2.37" overlapTraveltime="2.77" density="0.04" laneDensity="0.04" occupancy="0.01" waitingTime="0.00" timeLoss="0.66" speed="9.68" speedRelative="0.70" departed="0" arrived="1" entered="1" left="0" laneChangedFrom="0" laneChangedTo="0"/>
        <edge id="-1209009345" sampledSeconds="87.95" traveltime="14.41" overlapTraveltime="14.66" density="0.10" laneDensity="0.10" occupancy="0.05" waitingTime="0.00" timeLoss="15.69" speed="17.57" speedRelative="0.79" departed="0" arrived="2" entered="6" left="4" laneChangedFrom="0" laneChangedTo="0"/>
        <edge id="-1230825178" sampledSeconds="9.05" traveltime="4.31" overlapTraveltime="4.72" density="0.06" laneDensity="0.06" occupancy="0.03" waitingTime="0.00" timeLoss="2.44" speed="10.68" speedRelative="0.77" departed="0" arrived="2" entered="2" left="0" laneChangedFrom="0" laneChangedTo="0"/>
        <edge id="-1234980578#0" sampledSeconds="20.79" traveltime="4.60" overlapTraveltime="5.20" density="0.12" laneDensity="0.12" occupancy="0.05" waitingTime="0.00" timeLoss="4.86" speed="10.34" speedRelative="0.74" departed="0" arrived="0" entered="4" left="4" laneChangedFrom="0" laneChangedTo="0"/>
        <edge id="-1234980578#1" sampledSeconds="30.60" traveltime="3.94" overlapTraveltime="4.44" density="0.19" laneDensity="0.19" occupancy="0.09" waitingTime="0.00" timeLoss="5.56" speed="11.04" speedRelative="0.79" departed="1" arrived="1" entered="6" left="6" laneChangedFrom="0" laneChangedTo="0"/>
        <edge id="-1234980578#2" sampledSeconds="31.27" traveltime="4.02" overlapTraveltime="4.53" density="0.19" laneDensity="0.19" occupancy="0.09" waitingTime="0.00" timeLoss="5.03" speed="11.10" speedRelative="0.80" departed="1" arrived="0" entered="6" left="7" laneChangedFrom="0" laneChangedTo="0"/>
        <edge id="-1234980578#3" sampledSeconds="12.67" traveltime="1.14" overlapTraveltime="1.58" density="0.26" laneDensity="0.26" occupancy="0.10" waitingTime="0.00" timeLoss="1.48" speed="11.58" speedRelative="0.83" departed="0" arrived="1" entered="8" left="7" laneChangedFrom="0" laneChangedTo="0"/>
        <edge id="-1234980578#4" sampledSeconds="22.42" traveltime="2.13" overlapTraveltime="2.56" density="0.32" laneDensity="0.32" occupancy="0.13" waitingTime="0.00" timeLoss="7.03" speed="9.52" speedRelative="0.69" departed="2" arrived="2" entered="8" left="7" laneChangedFrom="0" laneChangedTo="0"/>
        <edge id="-1234980578#5" sampledSeconds="27.88" traveltime="3.53" overlapTraveltime="4.05" density="0.20" laneDensity="0.20" occupancy="0.09" waitingTime="0.00" timeLoss="4.09" speed="10.91" speedRelative="0.79" departed="1" arrived="0" entered="6" left="7" laneChangedFrom="0" laneChangedTo="0"/>
        <edge id="-1234980579#0" sampledSeconds="21.27" traveltime="2.24" overlapTraveltime="2.72" density="0.27" laneDensity="0.27" occupancy="0.11" waitingTime="0.00" timeLoss="5.69" speed="9.72" speedRelative="0.70" departed="1" arrived="1" entered="7" left="7" laneChangedFrom="0" laneChangedTo="0"/>
        <edge id="-1234980579#1" sampledSeconds="49.26" traveltime="4.47" overlapTraveltime="4.98" density="0.32" laneDensity="0.32" occupancy="0.14" waitingTime="0.00" timeLoss="12.40" speed="9.71" speedRelative="0.70" departed="1" arrived="2" entered="9" left="8" laneChangedFrom="0" laneChangedTo="0"/>
        <edge id="-1353599544" sampledSeconds="21.72" traveltime="7.25" overlapTraveltime="7.64" density="0.06" laneDensity="0.06" occupancy="0.03" waitingTime="0.00" timeLoss="1.12" speed="12.82" speedRelative="0.92" departed="3" arrived="0" entered="0" left="3" laneChangedFrom="0" laneChangedTo="0"/>
        <edge id="-1386043220" sampledSeconds="0.00" departed="0" arrived="0" entered="0" left="0" laneChangedFrom="0" laneChangedTo="0"/>
        <edge id="-1388249679" sampledSeconds="10.92" traveltime="4.98" overlapTraveltime="6.01" density="0.06" laneDensity="0.06" occupancy="0.03" waitingTime="0.00" timeLoss="2.03" speed="9.35" speedRelative="0.67" departed="2" arrived="0" entered="0" left="2" laneChangedFrom="0" laneChangedTo="0"/>
        <edge id="-1390881590" sampledSeconds="36.22" traveltime="6.88" overlapTraveltime="7.25" density="0.11" laneDensity="0.11" occupancy="0.05" waitingTime="0.00" timeLoss="3.03" speed="12.96" speedRelative="0.93" departed="0" arrived="5" entered="5" left="0" laneChangedFrom="0" laneChangedTo="0"/>
        <edge id="-1391510254" sampledSeconds="30.97" traveltime="5.92" overlapTraveltime="6.66" density="0.13" laneDensity="0.13" occupancy="0.06" waitingTime="0.00" timeLoss="5.95" speed="10.90" speedRelative="0.78" departed="5" arrived="0" entered="0" left="5" laneChangedFrom="0" laneChangedTo="0"/>
        <edge id="-1392047843" sampledSeconds="42.01" traveltime="41.79" overlapTraveltime="42.36" density="0.02" laneDensity="0.02" occupancy="0.01" waitingTime="0.00" timeLoss="2.27" speed="14.53" speedRelative="1.05" departed="1" arrived="0" entered="0" left="1" laneChangedFrom="0" laneChangedTo="0"/>
        <edge id="-1426003902" sampledSeconds="10.24" traveltime="0.03" overlapTraveltime="0.79" density="14.22" laneDensity="14.22" occupancy="0.27" waitingTime="0.00" timeLoss="7.15" speed="6.62" speedRelative="0.30" departed="0" arrived="1" entered="14" left="13" laneChangedFrom="0" laneChangedTo="0"/>
        <edge id="-1426003904" sampledSeconds="0.45" traveltime="0.03" overlapTraveltime="0.85" density="0.63" laneDensity="0.63" occupancy="0.01" waitingTime="0.00" timeLoss="0.26" speed="6.11" speedRelative="0.44" departed="0" arrived="1" entered="1" left="0" laneChangedFrom="0" laneChangedTo="0"/>
        <edge id="-234379809#1" sampledSeconds="167.21" traveltime="8.11" overlapTraveltime="8.80" density="0.47" laneDensity="0.47" occupancy="0.22" waitingTime="0.00" timeLoss="24.72" speed="11.84" speedRelative="0.85" departed="0" arrived="0" entered="19" left="19" laneChangedFrom="0" laneChangedTo="0"/>
        <edge id="-234379809#2" sampledSeconds="138.30" traveltime="6.92" overlapTraveltime="7.28" density="0.41" laneDensity="0.41" occupancy="0.19" waitingTime="0.00" timeLoss="9.32" speed="13.60" speedRelative="0.98" departed="0" arrived="1" entered="19" left="18" laneChangedFrom="0" laneChangedTo="0"/>
        <edge id="-234379809#7" sampledSeconds="721.85" traveltime="38.71" overlapTraveltime="39.10" density="0.40" laneDensity="0.40" occupancy="0.20" waitingTime="0.00" timeLoss="72.11" speed="12.85" speedRelative="0.92" departed="1" arrived="2" entered="18" left="16" laneChangedFrom="0" laneChangedTo="0"/>
        <edge id="-26754114#0" sampledSeconds="19.95" traveltime="1.96" overlapTraveltime="2.63" density="0.31" laneDensity="0.31" occupancy="0.12" waitingTime="0.00" timeLoss="5.76" speed="8.70" speedRelative="0.63" departed="1" arrived="2" entered="7" left="6" laneChangedFrom="0" laneChangedTo="0"/>
        <edge id="-26754114#1" sampledSeconds="36.68" traveltime="4.84" overlapTraveltime="5.24" density="0.18" laneDensity="0.18" occupancy="0.08" waitingTime="0.00" timeLoss="4.00" speed="11.94" speedRelative="0.86" departed="0" arrived="1" entered="7" left="6" laneChangedFrom="0" laneChangedTo="0"/>
        <edge id="-26754114#2" sampledSeconds="40.18" traveltime="4.05" overlapTraveltime="4.56" density="0.24" laneDensity="0.24" occupancy="0.11" waitingTime="0.00" timeLoss="5.18" speed="11.12" speedRelative="0.80" departed="1" arrived="2" entered="8" left="7" laneChangedFrom="0" laneChangedTo="0"/>
        <edge id="-26754114#3" sampledSeconds="48.96" traveltime="2.43" overlapTraveltime="2.87" density="0.70" laneDensity="0.70" occupancy="0.27" waitingTime="0.00" timeLoss="18.48" speed="8.56" speedRelative="0.62" departed="0" arrived="1" entered="17" left="16" laneChangedFrom="0" laneChangedTo="0"/>
        <edge id="-26754131" sampledSeconds="26.96" traveltime="8.35" overlapTraveltime="8.99" density="0.08" laneDensity="0.08" occupancy="0.04" waitingTime="0.00" timeLoss="3.50" speed="11.42" speedRelative="0.82" departed="0" arrived="1" entered="3" left="2" laneChangedFrom="0" laneChangedTo="0"/>
        <edge id="-26754140#0" sampledSeconds="39.72" traveltime="9.68" overlapTraveltime="9.93" density="0.06" laneDensity="0.06" occupancy="0.03" waitingTime="0.00" timeLoss="1.14" speed="20.18" speedRelative="0.91" departed="0" arrived="4" entered="4" left="0" laneChangedFrom="0" laneChangedTo="0"/>
        <edge id="-26754140#1" sampledSeconds="70.50" traveltime="5.83" overlapTraveltime="6.47" density="0.21" laneDensity="0.21" occupancy="0.10" waitingTime="0.00" timeLoss="21.02" speed="14.94" speedRelative="0.67" departed="2" arrived="1" entered="9" left="10" laneChangedFrom="0" laneChangedTo="0"/>
        <edge id="-26754140#2" sampledSeconds="71.46" traveltime="5.59" overlapTraveltime="5.95" density="0.21" laneDensity="0.21" occupancy="0.10" waitingTime="0.00" timeLoss="16.01" speed="16.53" speedRelative="0.74" departed="0" arrived="0" entered="12" left="12" laneChangedFrom="0" laneChangedTo="0"/>
        <edge id="-26754150#0" sampledSeconds="6.10" traveltime="2.36" overlapTraveltime="3.05" density="0.08" laneDensity="0.08" occupancy="0.03" waitingTime="0.00" timeLoss="1.28" speed="8.42" speedRelative="0.61" departed="0" arrived="0" entered="2" left="2" laneChangedFrom="0" laneChangedTo="0"/>
        <edge id="-26754150#1" sampledSeconds="10.85" traveltime="10.51" overlapTraveltime="10.85" density="0.02" laneDensity="0.02" occupancy="0.01" waitingTime="0.00" timeLoss="2.69" speed="11.69" speedRelative="0.84" departed="0" arrived="1" entered="1" left="0" laneChangedFrom="0" laneChangedTo="0"/>
        <edge id="-26754158#0" sampledSeconds="32.36" traveltime="10.28" overlapTraveltime="10.89" density="0.07" laneDensity="0.07" occupancy="0.03" waitingTime="0.00" timeLoss="4.08" speed="12.30" speedRelative="0.89" departed="0" arrived="1" entered="3" left="2" laneChangedFrom="0" laneChangedTo="0"/>
        <edge id="-26754158#1" sampledSeconds="11.60" traveltime="5.45" overlapTraveltime="5.80" density="0.04" laneDensity="0.04" occupancy="0.02" waitingTime="0.00" timeLoss="1.02" speed="13.53" speedRelative="0.97" departed="0" arrived="0" entered="2" left="2" laneChangedFrom="0" laneChangedTo="0"/>
        <edge id="-26754171" sampledSeconds="24.32" traveltime="11.69" overlapTraveltime="12.40" density="0.05" laneDensity="0.05" occupancy="0.03" waitingTime="0.00" timeLoss="5.74" speed="10.69" speedRelative="0.77" departed="1" arrived="0" entered="1" left="2" laneChangedFrom="0" laneChangedTo="0"/>
        <edge id="-26754175" sampledSeconds="0.00" departed="0" arrived="0" entered="0" left="0" laneChangedFrom="0" laneChangedTo="0"/>
        <edge id="-26754182#0" sampledSeconds="46.31" traveltime="8.69" overlapTraveltime="9.25" density="0.10" laneDensity="0.10" occupancy="0.05" waitingTime="0.00" timeLoss="5.09" speed="14.41" speedRelative="1.04" departed="0" arrived="2" entered="5" left="3" laneChangedFrom="0" laneChangedTo="0"/>
        <edge id="-26754182#1" sampledSeconds="22.91" traveltime="4.08" overlapTraveltime="4.57" density="0.11" laneDensity="0.11" occupancy="0.05" waitingTime="0.00" timeLoss="2.18" speed="14.06" speedRelative="1.01" departed="0" arrived="0" entered="5" left="5" laneChangedFrom="0" laneChangedTo="0"/>
        <edge id="-26754182#2" sampledSeconds="18.55" traveltime="3.38" overlapTraveltime="3.70" density="0.10" laneDensity="0.10" occupancy="0.05" waitingTime="0.00" timeLoss="0.96" speed="15.25" speedRelative="1.10" departed="0" arrived="0" entered="5" left="5" laneChangedFrom="0" laneChangedTo="0"/>
        <edge id="-26754182#3" sampledSeconds="29.77" traveltime="1.48" overlapTraveltime="2.18" density="0.67" laneDensity="0.67" occupancy="0.24" waitingTime="0.00" timeLoss="9.55" speed="7.95" speedRelative="0.57" departed="1" arrived="1" entered="13" left="13" laneChangedFrom="0" laneChangedTo="0"/>
        <edge id="-26754190#0" sampledSeconds="57.05" traveltime="11.02" overlapTraveltime="11.50" density="0.12" laneDensity="0.12" occupancy="0.06" waitingTime="0.00" timeLoss="7.28" speed="11.65" speedRelative="0.84" departed="1" arrived="0" entered="4" left="5" laneChangedFrom="0" laneChangedTo="0"/>