<?xml version="1.0" encoding="UTF-8"?>

<!-- generated on 2025-09-21 02:30:29 by Eclipse SUMO GUI Version 1.24.0
<sumoConfiguration xmlns:xsi="http://www.w3.org/2001/XMLSchema-instance" xsi:noNamespaceSchemaLocation="http://sumo.dlr.de/xsd/sumoConfiguration.xsd">

    <input>
        <net-file value="C:\Users\sujit\Desktop\SIH25\smart-traffic-system\Odisha_Rasulgarh_Sqare\osm.net.xml.gz"/>
        <route-files value="C:\Users\sujit\Desktop\SIH25\smart-traffic-system\Odisha_Rasulgarh_Sqare\osm.passenger.trips.xml"/>
        <additional-files value="C:\Users\sujit\Desktop\SIH25\smart-traffic-system\Odisha_Rasulgarh_Sqare\osm.poly.xml.gz,C:\Users\sujit\Desktop\SIH25\smart-traffic-system\Odisha_Rasulgarh_Sqare\output.add.xml"/>
    </input>

    <output>
        <tripinfo-output value="C:\Users\sujit\Desktop\SIH25\smart-traffic-system\Odisha_Rasulgarh_Sqare\tripinfos.xml"/>
        <statistic-output value="C:\Users\sujit\Desktop\SIH25\smart-traffic-system\Odisha_Rasulgarh_Sqare\stats.xml"/>
    </output>

    <processing>
        <ignore-route-errors value="true"/>
        <tls.actuated.jam-threshold value="30"/>
    </processing>

    <routing>
        <device.rerouting.adaptation-steps value="18"/>
        <device.rerouting.adaptation-interval value="10"/>
    </routing>

    <report>
        <verbose value="true"/>
        <duration-log.statistics value="true"/>
        <no-step-log value="true"/>
    </report>

    <gui_only>
        <gui-settings-file value="C:\Users\sujit\Desktop\SIH25\smart-traffic-system\Odisha_Rasulgarh_Sqare\osm.view.xml"/>
    </gui_only>

</sumoConfiguration>
-->

<tripinfos xmlns:xsi="http://www.w3.org/2001/XMLSchema-instance" xsi:noNamespaceSchemaLocation="http://sumo.dlr.de/xsd/tripinfo_file.xsd">
    <tripinfo id="veh11" depart="16.00" departLane="874586795_0" departPos="5.10" departSpeed="14.14" departDelay="0.85" arrival="86.00" arrivalLane="-874520137#6_0" arrivalPos="51.75" arrivalSpeed="13.58" duration="70.00" routeLength="904.85" waitingTime="0.00" waitingCount="0" stopTime="0.00" timeLoss="13.33" rerouteNo="1" devices="tripinfo_veh11 routing_veh11" vType="veh_passenger" speedFactor="1.02" vaporized=""/>
    <tripinfo id="veh11.1" depart="17.00" departLane="874586795_0" departPos="5.10" departSpeed="10.58" departDelay="1.85" arrival="91.00" arrivalLane="-874520137#6_0" arrivalPos="51.75" arrivalSpeed="13.43" duration="74.00" routeLength="904.85" waitingTime="0.00" waitingCount="0" stopTime="0.00" timeLoss="16.58" rerouteNo="1" devices="tripinfo_veh11.1 routing_veh11.1" vType="veh_passenger" speedFactor="1.01" vaporized=""/>
    <tripinfo id="veh2" depart="3.00" departLane="368392224#3_0" departPos="5.10" departSpeed="0.00" departDelay="0.25" arrival="106.00" arrivalLane="368708839#0_0" arrivalPos="35.64" arrivalSpeed="13.28" duration="103.00" routeLength="1155.09" waitingTime="0.00" waitingCount="0" stopTime="0.00" timeLoss="23.88" rerouteNo="1" devices="tripinfo_veh2 routing_veh2" vType="veh_passenger" speedFactor="1.01" vaporized=""/>
    <tripinfo id="veh2.1" depart="6.00" departLane="368392224#3_0" departPos="5.10" departSpeed="0.00" departDelay="3.25" arrival="108.00" arrivalLane="368708839#0_0" arrivalPos="35.64" arrivalSpeed="12.76" duration="102.00" routeLength="1155.09" waitingTime="0.00" waitingCount="0" stopTime="0.00" timeLoss="28.83" rerouteNo="1" devices="tripinfo_veh2.1 routing_veh2.1" vType="veh_passenger" speedFactor="1.08" vaporized=""/>
    <tripinfo id="veh42" depart="58.00" departLane="-1089496850#1_0" departPos="2.50" departSpeed="0.00" departDelay="0.17" arrival="113.00" arrivalLane="478775467_0" arrivalPos="160.97" arrivalSpeed="12.85" duration="55.00" routeLength="552.86" waitingTime="0.00" waitingCount="0" stopTime="0.00" timeLoss="16.14" rerouteNo="1" devices="tripinfo_veh42 routing_veh42" vType="veh_passenger" speedFactor="1.02" vaporized=""/>
    <tripinfo id="veh42.1" depart="60.00" departLane="-1089496850#1_0" departPos="2.50" departSpeed="0.00" departDelay="2.17" arrival="117.00" arrivalLane="478775467_0" arrivalPos="160.97" arrivalSpeed="13.40" duration="57.00" routeLength="552.86" waitingTime="1.00" waitingCount="1" stopTime="0.00" timeLoss="16.58" rerouteNo="1" devices="tripinfo_veh42.1 routing_veh42.1" vType="veh_passenger" speedFactor="0.97" vaporized=""/>
    <tripinfo id="veh37" depart="51.00" departLane="-26755845#1_0" departPos="5.10" departSpeed="0.00" departDelay="0.06" arrival="118.00" arrivalLane="-26754330#3_0" arrivalPos="44.93" arrivalSpeed="12.65" duration="67.00" routeLength="522.60" waitingTime="8.00" waitingCount="1" stopTime="0.00" timeLoss="24.11" rerouteNo="1" devices="tripinfo_veh37 routing_veh37" vType="veh_passenger" speedFactor="0.94" vaporized=""/>
    <tripinfo id="veh37.1" depart="54.00" departLane="-26755845#1_0" departPos="5.10" departSpeed="0.00" departDelay="3.06" arrival="123.00" arrivalLane="-26754330#3_0" arrivalPos="44.93" arrivalSpeed="14.63" duration="69.00" routeLength="522.60" waitingTime="8.00" waitingCount="2" stopTime="0.00" timeLoss="31.92" rerouteNo="1" devices="tripinfo_veh37.1 routing_veh37.1" vType="veh_passenger" speedFactor="1.06" vaporized=""/>
    <tripinfo id="veh18" depart="25.00" departLane="-368708801#1_0" departPos="5.10" departSpeed="0.00" departDelay="0.22" arrival="130.00" arrivalLane="-868990994#0_0" arrivalPos="49.77" arrivalSpeed="13.07" duration="105.00" routeLength="1662.38" waitingTime="0.00" waitingCount="0" stopTime="0.00" timeLoss="15.71" rerouteNo="1" devices="tripinfo_veh18 routing_veh18" vType="veh_passenger" speedFactor="0.99" vaporized=""/>
    <tripinfo id="veh18.1" depart="28.00" departLane="-368708801#1_0" departPos="5.10" departSpeed="0.00" departDelay="3.22" arrival="132.00" arrivalLane="-868990994#0_0" arrivalPos="49.77" arrivalSpeed="13.58" duration="104.00" routeLength="1662.38" waitingTime="0.00" waitingCount="0" stopTime="0.00" timeLoss="17.86" rerouteNo="1" devices="tripinfo_veh18.1 routing_veh18.1" vType="veh_passenger" speedFactor="1.02" vaporized=""/>
    <tripinfo id="veh19" depart="27.00" departLane="-26755534#2_0" departPos="5.10" departSpeed="0.00" departDelay="0.84" arrival="138.00" arrivalLane="-478069216#0_0" arrivalPos="273.17" arrivalSpeed="13.25" duration="111.00" routeLength="1317.98" waitingTime="0.00" waitingCount="0" stopTime="0.00" timeLoss="11.09" rerouteNo="1" devices="tripinfo_veh19 routing_veh19" vType="veh_passenger" speedFactor="0.97" vaporized=""/>
    <tripinfo id="veh19.1" depart="30.00" departLane="-26755534#2_0" departPos="5.10" departSpeed="0.00" departDelay="3.84" arrival="140.00" arrivalLane="-478069216#0_0" arrivalPos="273.17" arrivalSpeed="15.55" duration="110.00" routeLength="1317.98" waitingTime="0.00" waitingCount="0" stopTime="0.00" timeLoss="27.71" rerouteNo="1" devices="tripinfo_veh19.1 routing_veh19.1" vType="veh_passenger" speedFactor="1.18" vaporized=""/>
    <tripinfo id="veh51" depart="71.00" departLane="368708949#0_0" departPos="5.10" departSpeed="14.79" departDelay="0.78" arrival="141.00" arrivalLane="292410140#3_0" arrivalPos="0.20" arrivalSpeed="29.49" duration="70.00" routeLength="927.38" waitingTime="0.00" waitingCount="0" stopTime="0.00" timeLoss="12.59" rerouteNo="1" devices="tripinfo_veh51 routing_veh51" vType="veh_passenger" speedFactor="1.06" vaporized=""/>
    <tripinfo id="veh29.1" depart="41.00" departLane="-368708785_0" departPos="5.10" departSpeed="8.89" departDelay="1.07" arrival="149.00" arrivalLane="874586785_0" arrivalPos="81.79" arrivalSpeed="15.62" duration="108.00" routeLength="1928.13" waitingTime="0.00" waitingCount="0" stopTime="0.00" timeLoss="30.64" rerouteNo="1" devices="tripinfo_veh29.1 routing_veh29.1" vType="veh_passenger" speedFactor="1.14" vaporized=""/>
    <tripinfo id="veh21" depart="29.00" departLane="26755549_0" departPos="5.10" departSpeed="28.62" departDelay="0.09" arrival="150.00" arrivalLane="-874592587#0_0" arrivalPos="40.52" arrivalSpeed="13.81" duration="121.00" routeLength="2424.76" waitingTime="0.00" waitingCount="0" stopTime="0.00" timeLoss="16.85" rerouteNo="1" devices="tripinfo_veh21 routing_veh21" vType="veh_passenger" speedFactor="1.03" vaporized=""/>
    <tripinfo id="veh7" depart="10.00" departLane="-368708792#4_0" departPos="5.10" departSpeed="14.54" departDelay="0.36" arrival="152.00" arrivalLane="368392210#2_0" arrivalPos="8.97" arrivalSpeed="13.43" duration="142.00" routeLength="2301.47" waitingTime="0.00" waitingCount="0" stopTime="0.00" timeLoss="23.02" rerouteNo="1" devices="tripinfo_veh7 routing_veh7" vType="veh_passenger" speedFactor="1.05" vaporized=""/>
    <tripinfo id="veh51.1" depart="72.00" departLane="368708949#0_0" departPos="5.10" departSpeed="11.89" departDelay="1.78" arrival="154.00" arrivalLane="292410140#3_0" arrivalPos="0.20" arrivalSpeed="16.30" duration="82.00" routeLength="927.38" waitingTime="0.00" waitingCount="0" stopTime="0.00" timeLoss="18.12" rerouteNo="1" devices="tripinfo_veh51.1 routing_veh51.1" vType="veh_passenger" speedFactor="0.96" vaporized=""/>
    <tripinfo id="veh7.1" depart="11.00" departLane="-368708792#4_0" departPos="5.10" departSpeed="10.76" departDelay="1.36" arrival="155.00" arrivalLane="368392210#2_0" arrivalPos="8.97" arrivalSpeed="15.21" duration="144.00" routeLength="2301.47" waitingTime="0.00" waitingCount="0" stopTime="0.00" timeLoss="34.01" rerouteNo="1" devices="tripinfo_veh7.1 routing_veh7.1" vType="veh_passenger" speedFactor="1.12" vaporized=""/>
    <tripinfo id="veh23" depart="32.00" departLane="-368392215_0" departPos="5.10" departSpeed="13.86" departDelay="0.33" arrival="160.00" arrivalLane="478775712_0" arrivalPos="39.31" arrivalSpeed="13.25" duration="128.00" routeLength="1650.10" waitingTime="0.00" waitingCount="0" stopTime="0.00" timeLoss="21.27" rerouteNo="1" devices="tripinfo_veh23 routing_veh23" vType="veh_passenger" speedFactor="1.04" vaporized=""/>
    <tripinfo id="veh29" depart="40.00" departLane="-368708785_0" departPos="5.10" departSpeed="12.49" departDelay="0.07" arrival="160.00" arrivalLane="874586785_0" arrivalPos="81.79" arrivalSpeed="12.23" duration="120.00" routeLength="1928.13" waitingTime="0.00" waitingCount="0" stopTime="0.00" timeLoss="19.87" rerouteNo="1" devices="tripinfo_veh29 routing_veh29" vType="veh_passenger" speedFactor="0.90" vaporized=""/>
    <tripinfo id="veh43" depart="60.00" departLane="368101946#17_0" departPos="5.10" departSpeed="0.00" departDelay="0.80" arrival="162.00" arrivalLane="368101946#0_0" arrivalPos="35.15" arrivalSpeed="13.33" duration="102.00" routeLength="1756.20" waitingTime="0.00" waitingCount="0" stopTime="0.00" timeLoss="28.10" rerouteNo="1" devices="tripinfo_veh43 routing_veh43" vType="veh_passenger" speedFactor="1.15" vaporized=""/>
    <tripinfo id="veh68" depart="94.00" departLane="-368708807_0" departPos="5.10" departSpeed="17.03" departDelay="0.38" arrival="162.00" arrivalLane="-464263626#0_0" arrivalPos="39.40" arrivalSpeed="15.99" duration="68.00" routeLength="1127.69" waitingTime="0.00" waitingCount="0" stopTime="0.00" timeLoss="14.11" rerouteNo="1" devices="tripinfo_veh68 routing_veh68" vType="veh_passenger" speedFactor="1.23" vaporized=""/>
    <tripinfo id="veh23.1" depart="33.00" departLane="-368392215_0" departPos="5.10" departSpeed="10.71" departDelay="1.33" arrival="164.00" arrivalLane="478775712_0" arrivalPos="39.31" arrivalSpeed="14.92" duration="131.00" routeLength="1650.10" waitingTime="0.00" waitingCount="0" stopTime="0.00" timeLoss="28.78" rerouteNo="1" devices="tripinfo_veh23.1 routing_veh23.1" vType="veh_passenger" speedFactor="1.09" vaporized=""/>
    <tripinfo id="veh69" depart="95.00" departLane="-368708801#6_0" departPos="5.10" departSpeed="0.00" departDelay="0.00" arrival="164.00" arrivalLane="874572881#1_0" arrivalPos="106.40" arrivalSpeed="15.13" duration="69.00" routeLength="1193.67" waitingTime="0.00" waitingCount="0" stopTime="0.00" timeLoss="14.58" rerouteNo="1" devices="tripinfo_veh69 routing_veh69" vType="veh_passenger" speedFactor="1.12" vaporized=""/>
    <tripinfo id="veh21.1" depart="30.00" departLane="26755549_0" departPos="5.10" departSpeed="26.59" departDelay="1.09" arrival="168.00" arrivalLane="-874592587#0_0" arrivalPos="40.52" arrivalSpeed="12.80" duration="138.00" routeLength="2424.76" waitingTime="2.00" waitingCount="1" stopTime="0.00" timeLoss="25.49" rerouteNo="1" devices="tripinfo_veh21.1 routing_veh21.1" vType="veh_passenger" speedFactor="0.96" vaporized=""/>
    <tripinfo id="veh0" depart="0.00" departLane="26755582#1_0" departPos="5.10" departSpeed="0.00" departDelay="0.00" arrival="170.00" arrivalLane="-1234980578#1_0" arrivalPos="44.02" arrivalSpeed="14.53" duration="170.00" routeLength="3103.38" waitingTime="0.00" waitingCount="0" stopTime="0.00" timeLoss="33.32" rerouteNo="1" devices="tripinfo_veh0 routing_veh0" vType="veh_passenger" speedFactor="1.06" vaporized=""/>
    <tripinfo id="veh12" depart="17.00" departLane="703274422_0" departPos="5.10" departSpeed="0.00" departDelay="0.48" arrival="170.00" arrivalLane="368392226#1_0" arrivalPos="33.05" arrivalSpeed="12.35" duration="153.00" routeLength="750.30" waitingTime="73.00" waitingCount="2" stopTime="0.00" timeLoss="99.94" rerouteNo="1" devices="tripinfo_veh12 routing_veh12" vType="veh_passenger" speedFactor="0.97" vaporized=""/>
    <tripinfo id="veh48" depart="67.00" departLane="-478775721_0" departPos="5.10" departSpeed="13.91" departDelay="0.91" arrival="170.00" arrivalLane="368708782_0" arrivalPos="51.23" arrivalSpeed="15.14" duration="103.00" routeLength="926.80" waitingTime="27.00" waitingCount="1" stopTime="0.00" timeLoss="52.62" rerouteNo="1" devices="tripinfo_veh48 routing_veh48" vType="veh_passenger" speedFactor="1.09" vaporized=""/>
    <tripinfo id="veh59" depart="82.00" departLane="368708791#5_0" departPos="5.10" departSpeed="0.00" departDelay="0.77" arrival="173.00" arrivalLane="-368392151#0_0" arrivalPos="27.12" arrivalSpeed="11.59" duration="91.00" routeLength="1265.95" waitingTime="0.00" waitingCount="0" stopTime="0.00" timeLoss="24.82" rerouteNo="1" devices="tripinfo_veh59 routing_veh59" vType="veh_passenger" speedFactor="1.18" vaporized=""/>
    <tripinfo id="veh48.1" depart="68.00" departLane="-478775721_0" departPos="5.10" departSpeed="10.73" departDelay="1.91" arrival="174.00" arrivalLane="368708782_0" arrivalPos="51.23" arrivalSpeed="14.65" duration="106.00" routeLength="926.80" waitingTime="25.00" waitingCount="1" stopTime="0.00" timeLoss="53.79" rerouteNo="1" devices="tripinfo_veh48.1 routing_veh48.1" vType="veh_passenger" speedFactor="1.06" vaporized=""/>
    <tripinfo id="veh68.1" depart="95.00" departLane="-368708807_0" departPos="5.10" departSpeed="14.05" departDelay="1.38" arrival="174.00" arrivalLane="-464263626#0_0" arrivalPos="39.40" arrivalSpeed="12.90" duration="79.00" routeLength="1127.69" waitingTime="0.00" waitingCount="0" stopTime="0.00" timeLoss="12.54" rerouteNo="1" devices="tripinfo_veh68.1 routing_veh68.1" vType="veh_passenger" speedFactor="1.01" vaporized=""/>
    <tripinfo id="veh113" depart="156.00" departLane="880027177#5_0" departPos="5.10" departSpeed="0.00" departDelay="0.42" arrival="174.00" arrivalLane="880027177#7_0" arrivalPos="173.46" arrivalSpeed="21.33" duration="18.00" routeLength="283.61" waitingTime="0.00" waitingCount="0" stopTime="0.00" timeLoss="5.24" rerouteNo="0" devices="tripinfo_veh113 routing_veh113" vType="veh_passenger" speedFactor="1.02" vaporized=""/>
    <tripinfo id="veh12.1" depart="20.00" departLane="703274422_0" departPos="5.10" departSpeed="0.00" departDelay="3.48" arrival="175.00" arrivalLane="368392226#1_0" arrivalPos="33.05" arrivalSpeed="11.06" duration="155.00" routeLength="750.30" waitingTime="69.00" waitingCount="2" stopTime="0.00" timeLoss="96.06" rerouteNo="1" devices="tripinfo_veh12.1 routing_veh12.1" vType="veh_passenger" speedFactor="0.89" vaporized=""/>
    <tripinfo id="veh43.1" depart="63.00" departLane="368101946#17_0" departPos="5.10" departSpeed="0.00" departDelay="3.80" arrival="175.00" arrivalLane="368101946#0_0" arrivalPos="35.15" arrivalSpeed="12.99" duration="112.00" routeLength="1756.20" waitingTime="0.00" waitingCount="0" stopTime="0.00" timeLoss="24.47" rerouteNo="1" devices="tripinfo_veh43.1 routing_veh43.1" vType="veh_passenger" speedFactor="0.98" vaporized=""/>
    <tripinfo id="veh26.1" depart="39.00" departLane="1208986535#1_0" departPos="5.10" departSpeed="0.00" departDelay="3.20" arrival="177.00" arrivalLane="40016878#10_1" arrivalPos="244.51" arrivalSpeed="32.03" duration="138.00" routeLength="2782.73" waitingTime="0.00" waitingCount="0" stopTime="0.00" timeLoss="41.55" rerouteNo="1" devices="tripinfo_veh26.1 routing_veh26.1" vType="veh_passenger" speedFactor="1.17" vaporized=""/>
    <tripinfo id="veh113.1" depart="159.00" departLane="880027177#5_0" departPos="5.10" departSpeed="0.00" departDelay="3.42" arrival="178.00" arrivalLane="880027177#7_0" arrivalPos="173.46" arrivalSpeed="21.22" duration="19.00" routeLength="283.61" waitingTime="0.00" waitingCount="0" stopTime="0.00" timeLoss="5.16" rerouteNo="0" devices="tripinfo_veh113.1 routing_veh113.1" vType="veh_passenger" speedFactor="0.97" vaporized=""/>
    <tripinfo id="veh47" depart="65.00" departLane="868990994#10_0" departPos="5.10" departSpeed="0.00" departDelay="0.29" arrival="179.00" arrivalLane="-478800351#1_0" arrivalPos="8.10" arrivalSpeed="6.76" duration="114.00" routeLength="1411.92" waitingTime="0.00" waitingCount="0" stopTime="0.00" timeLoss="21.83" rerouteNo="1" devices="tripinfo_veh47 routing_veh47" vType="veh_passenger" speedFactor="0.83" vaporized=""/>
    <tripinfo id="veh57" depart="79.00" departLane="-26755650#0_0" departPos="5.10" departSpeed="0.00" departDelay="0.52" arrival="180.00" arrivalLane="26754758#1_0" arrivalPos="52.81" arrivalSpeed="14.69" duration="101.00" routeLength="1227.00" waitingTime="0.00" waitingCount="0" stopTime="0.00" timeLoss="17.70" rerouteNo="1" devices="tripinfo_veh57 routing_veh57" vType="veh_passenger" speedFactor="1.10" vaporized=""/>
    <tripinfo id="veh59.1" depart="85.00" departLane="368708791#5_0" departPos="5.10" departSpeed="0.00" departDelay="3.77" arrival="183.00" arrivalLane="-368392151#0_0" arrivalPos="27.12" arrivalSpeed="12.38" duration="98.00" routeLength="1265.95" waitingTime="0.00" waitingCount="0" stopTime="0.00" timeLoss="20.75" rerouteNo="1" devices="tripinfo_veh59.1 routing_veh59.1" vType="veh_passenger" speedFactor="1.00" vaporized=""/>
    <tripinfo id="veh39" depart="54.00" departLane="-26754610#0_0" departPos="5.10" departSpeed="0.00" departDelay="0.30" arrival="185.00" arrivalLane="-877455850#0_0" arrivalPos="173.84" arrivalSpeed="13.15" duration="131.00" routeLength="1763.72" waitingTime="0.00" waitingCount="0" stopTime="0.00" timeLoss="21.86" rerouteNo="1" devices="tripinfo_veh39 routing_veh39" vType="veh_passenger" speedFactor="1.03" vaporized=""/>
    <tripinfo id="veh47.1" depart="68.00" departLane="868990994#10_0" departPos="5.10" departSpeed="0.00" departDelay="3.29" arrival="185.00" arrivalLane="-478800351#1_0" arrivalPos="8.10" arrivalSpeed="7.24" duration="117.00" routeLength="1411.92" waitingTime="0.00" waitingCount="0" stopTime="0.00" timeLoss="33.11" rerouteNo="1" devices="tripinfo_veh47.1 routing_veh47.1" vType="veh_passenger" speedFactor="0.92" vaporized=""/>
    <tripinfo id="veh69.1" depart="108.00" departLane="-368708801#6_0" departPos="5.10" departSpeed="0.00" departDelay="13.00" arrival="186.00" arrivalLane="874572881#1_0" arrivalPos="106.40" arrivalSpeed="13.73" duration="78.00" routeLength="1193.67" waitingTime="5.00" waitingCount="1" stopTime="0.00" timeLoss="17.52" rerouteNo="1" devices="tripinfo_veh69.1 routing_veh69.1" vType="veh_passenger" speedFactor="1.02" vaporized=""/>
    <tripinfo id="veh26" depart="36.00" departLane="1208986535#1_0" departPos="5.10" departSpeed="0.00" departDelay="0.20" arrival="187.00" arrivalLane="40016878#10_0" arrivalPos="244.51" arrivalSpeed="22.73" duration="151.00" routeLength="2782.73" waitingTime="0.00" waitingCount="0" stopTime="0.00" timeLoss="19.41" rerouteNo="1" devices="tripinfo_veh26 routing_veh26" vType="veh_passenger" speedFactor="0.85" vaporized=""/>
    <tripinfo id="veh10" depart="14.00" departLane="-703796182_0" departPos="5.10" departSpeed="13.00" departDelay="0.23" arrival="191.00" arrivalLane="-368392193#5_0" arrivalPos="26.91" arrivalSpeed="11.57" duration="177.00" routeLength="2461.43" waitingTime="0.00" waitingCount="0" stopTime="0.00" timeLoss="35.23" rerouteNo="1" devices="tripinfo_veh10 routing_veh10" vType="veh_passenger" speedFactor="0.94" vaporized=""/>
    <tripinfo id="veh50" depart="69.00" departLane="368708783_0" departPos="5.10" departSpeed="0.00" departDelay="0.16" arrival="191.00" arrivalLane="368101946#3_0" arrivalPos="13.42" arrivalSpeed="8.50" duration="122.00" routeLength="1735.15" waitingTime="0.00" waitingCount="0" stopTime="0.00" timeLoss="26.77" rerouteNo="1" devices="tripinfo_veh50 routing_veh50" vType="veh_passenger" speedFactor="1.12" vaporized=""/>
    <tripinfo id="veh57.1" depart="82.00" departLane="-26755650#0_0" departPos="5.10" departSpeed="0.00" departDelay="3.52" arrival="192.00" arrivalLane="26754758#1_0" arrivalPos="52.81" arrivalSpeed="13.17" duration="110.00" routeLength="1227.00" waitingTime="0.00" waitingCount="0" stopTime="0.00" timeLoss="19.20" rerouteNo="1" devices="tripinfo_veh57.1 routing_veh57.1" vType="veh_passenger" speedFactor="1.01" vaporized=""/>
    <tripinfo id="veh10.1" depart="15.00" departLane="-703796182_0" departPos="5.10" departSpeed="9.53" departDelay="1.23" arrival="193.00" arrivalLane="-368392193#5_0" arrivalPos="26.91" arrivalSpeed="9.81" duration="178.00" routeLength="2461.43" waitingTime="0.00" waitingCount="0" stopTime="0.00" timeLoss="64.77" rerouteNo="1" devices="tripinfo_veh10.1 routing_veh10.1" vType="veh_passenger" speedFactor="1.16" vaporized=""/>
    <tripinfo id="veh39.1" depart="57.00" departLane="-26754610#0_0" departPos="5.10" departSpeed="0.00" departDelay="3.30" arrival="195.00" arrivalLane="-877455850#0_0" arrivalPos="173.84" arrivalSpeed="13.11" duration="138.00" routeLength="1763.72" waitingTime="0.00" waitingCount="0" stopTime="0.00" timeLoss="22.62" rerouteNo="1" devices="tripinfo_veh39.1 routing_veh39.1" vType="veh_passenger" speedFactor="0.98" vaporized=""/>
    <tripinfo id="veh77" depart="107.00" departLane="368392214#0_0" departPos="5.10" departSpeed="0.00" departDelay="0.98" arrival="196.00" arrivalLane="368708823#1_0" arrivalPos="31.49" arrivalSpeed="10.92" duration="89.00" routeLength="793.89" waitingTime="0.00" waitingCount="0" stopTime="0.00" timeLoss="27.84" rerouteNo="1" devices="tripinfo_veh77 routing_veh77" vType="veh_passenger" speedFactor="1.07" vaporized=""/>
    <tripinfo id="veh53" depart="73.00" departLane="-1133810440#1_0" departPos="5.10" departSpeed="9.76" departDelay="0.03" arrival="197.00" arrivalLane="874582734_0" arrivalPos="58.43" arrivalSpeed="12.34" duration="124.00" routeLength="1344.45" waitingTime="0.00" waitingCount="0" stopTime="0.00" timeLoss="24.95" rerouteNo="1" devices="tripinfo_veh53 routing_veh53" vType="veh_passenger" speedFactor="0.89" vaporized=""/>
    <tripinfo id="veh82" depart="113.00" departLane="-874520139#0_0" departPos="5.10" departSpeed="0.00" departDelay="0.10" arrival="197.00" arrivalLane="-746487536#6_0" arrivalPos="31.54" arrivalSpeed="11.60" duration="84.00" routeLength="913.25" waitingTime="0.00" waitingCount="0" stopTime="0.00" timeLoss="21.51" rerouteNo="1" devices="tripinfo_veh82 routing_veh82" vType="veh_passenger" speedFactor="0.99" vaporized=""/>
    <tripinfo id="veh50.1" depart="72.00" departLane="368708783_0" departPos="5.10" departSpeed="0.00" departDelay="3.16" arrival="198.00" arrivalLane="368101946#3_0" arrivalPos="13.42" arrivalSpeed="8.54" duration="126.00" routeLength="1735.15" waitingTime="0.00" waitingCount="0" stopTime="0.00" timeLoss="28.30" rerouteNo="1" devices="tripinfo_veh50.1 routing_veh50.1" vType="veh_passenger" speedFactor="1.10" vaporized=""/>
    <tripinfo id="veh53.1" depart="74.00" departLane="-1133810440#1_0" departPos="5.10" departSpeed="5.62" departDelay="1.03" arrival="199.00" arrivalLane="874582734_0" arrivalPos="58.43" arrivalSpeed="13.73" duration="125.00" routeLength="1344.45" waitingTime="0.00" waitingCount="0" stopTime="0.00" timeLoss="43.02" rerouteNo="1" devices="tripinfo_veh53.1 routing_veh53.1" vType="veh_passenger" speedFactor="1.07" vaporized=""/>
    <tripinfo id="veh82.1" depart="116.00" departLane="-874520139#0_0" departPos="5.10" departSpeed="0.00" departDelay="3.10" arrival="201.00" arrivalLane="-746487536#6_0" arrivalPos="31.54" arrivalSpeed="11.52" duration="85.00" routeLength="913.25" waitingTime="2.00" waitingCount="1" stopTime="0.00" timeLoss="30.49" rerouteNo="1" devices="tripinfo_veh82.1 routing_veh82.1" vType="veh_passenger" speedFactor="1.13" vaporized=""/>
    <tripinfo id="veh31" depart="43.00" departLane="26755921#4_0" departPos="5.10" departSpeed="0.00" departDelay="0.32" arrival="202.00" arrivalLane="1014003072#0_2" arrivalPos="58.66" arrivalSpeed="23.24" duration="159.00" routeLength="2539.37" waitingTime="0.00" waitingCount="0" stopTime="0.00" timeLoss="50.81" rerouteNo="1" devices="tripinfo_veh31 routing_veh31" vType="veh_passenger" speedFactor="1.08" vaporized=""/>
    <tripinfo id="veh31.1" depart="46.00" departLane="26755921#4_0" departPos="5.10" departSpeed="0.00" departDelay="3.32" arrival="204.00" arrivalLane="1014003072#0_2" arrivalPos="58.66" arrivalSpeed="23.24" duration="158.00" routeLength="2539.37" waitingTime="0.00" waitingCount="0" stopTime="0.00" timeLoss="52.84" rerouteNo="1" devices="tripinfo_veh31.1 routing_veh31.1" vType="veh_passenger" speedFactor="1.12" vaporized=""/>
    <tripinfo id="veh56" depart="78.00" departLane="868990994#8_0" departPos="5.10" departSpeed="0.00" departDelay="0.90" arrival="204.00" arrivalLane="874586794#0_0" arrivalPos="21.00" arrivalSpeed="10.86" duration="126.00" routeLength="1809.58" waitingTime="0.00" waitingCount="0" stopTime="0.00" timeLoss="25.75" rerouteNo="1" devices="tripinfo_veh56 routing_veh56" vType="veh_passenger" speedFactor="0.93" vaporized=""/>
    <tripinfo id="veh30" depart="42.00" departLane="868990994#2_0" departPos="5.10" departSpeed="0.00" departDelay="0.70" arrival="206.00" arrivalLane="-874493445#1_0" arrivalPos="126.98" arrivalSpeed="13.96" duration="164.00" routeLength="2537.18" waitingTime="0.00" waitingCount="0" stopTime="0.00" timeLoss="29.12" rerouteNo="1" devices="tripinfo_veh30 routing_veh30" vType="veh_passenger" speedFactor="1.02" vaporized=""/>
    <tripinfo id="veh56.1" depart="81.00" departLane="868990994#8_0" departPos="5.10" departSpeed="0.00" departDelay="3.90" arrival="213.00" arrivalLane="874586794#0_0" arrivalPos="21.00" arrivalSpeed="9.87" duration="132.00" routeLength="1809.58" waitingTime="0.00" waitingCount="0" stopTime="0.00" timeLoss="23.86" rerouteNo="1" devices="tripinfo_veh56.1 routing_veh56.1" vType="veh_passenger" speedFactor="0.87" vaporized=""/>
    <tripinfo id="veh98" depart="135.00" departLane="1118878165_0" departPos="5.10" departSpeed="0.00" departDelay="0.07" arrival="214.00" arrivalLane="478800014_0" arrivalPos="102.08" arrivalSpeed="13.39" duration="79.00" routeLength="687.59" waitingTime="1.00" waitingCount="1" stopTime="0.00" timeLoss="25.88" rerouteNo="1" devices="tripinfo_veh98 routing_veh98" vType="veh_passenger" speedFactor="1.00" vaporized=""/>
    <tripinfo id="veh77.1" depart="110.00" departLane="368392214#0_0" departPos="5.10" departSpeed="0.00" departDelay="3.98" arrival="216.00" arrivalLane="368708823#1_0" arrivalPos="31.49" arrivalSpeed="5.07" duration="106.00" routeLength="793.89" waitingTime="3.00" waitingCount="1" stopTime="0.00" timeLoss="36.29" rerouteNo="1" devices="tripinfo_veh77.1 routing_veh77.1" vType="veh_passenger" speedFactor="0.93" vaporized=""/>
    <tripinfo id="veh28" depart="39.00" departLane="-478800025#1_0" departPos="5.10" departSpeed="0.00" departDelay="0.45" arrival="218.00" arrivalLane="-593581362#4_0" arrivalPos="10.59" arrivalSpeed="11.63" duration="179.00" routeLength="1764.66" waitingTime="40.00" waitingCount="1" stopTime="0.00" timeLoss="73.21" rerouteNo="1" devices="tripinfo_veh28 routing_veh28" vType="veh_passenger" speedFactor="1.00" vaporized=""/>
    <tripinfo id="veh4" depart="6.00" departLane="-874520139#0_0" departPos="5.10" departSpeed="0.00" departDelay="0.49" arrival="220.00" arrivalLane="-1426003904_0" arrivalPos="0.20" arrivalSpeed="6.72" duration="214.00" routeLength="2446.09" waitingTime="46.00" waitingCount="1" stopTime="0.00" timeLoss="88.92" rerouteNo="1" devices="tripinfo_veh4 routing_veh4" vType="veh_passenger" speedFactor="1.05" vaporized=""/>
    <tripinfo id="veh71" depart="98.00" departLane="-368708787_0" departPos="5.10" departSpeed="15.22" departDelay="0.25" arrival="220.00" arrivalLane="-368392154#1_0" arrivalPos="15.52" arrivalSpeed="14.06" duration="122.00" routeLength="1524.95" waitingTime="6.00" waitingCount="1" stopTime="0.00" timeLoss="32.06" rerouteNo="1" devices="tripinfo_veh71 routing_veh71" vType="veh_passenger" speedFactor="1.11" vaporized=""/>
    <tripinfo id="veh28.1" depart="42.00" departLane="-478800025#1_0" departPos="5.10" departSpeed="0.00" departDelay="3.45" arrival="223.00" arrivalLane="-593581362#4_0" arrivalPos="10.59" arrivalSpeed="10.90" duration="181.00" routeLength="1764.66" waitingTime="38.00" waitingCount="1" stopTime="0.00" timeLoss="74.14" rerouteNo="1" devices="tripinfo_veh28.1 routing_veh28.1" vType="veh_passenger" speedFactor="1.00" vaporized=""/>
    <tripinfo id="veh30.1" depart="45.00" departLane="868990994#2_0" departPos="5.10" departSpeed="0.00" departDelay="3.70" arrival="225.00" arrivalLane="-874493445#1_0" arrivalPos="126.98" arrivalSpeed="12.33" duration="180.00" routeLength="2537.18" waitingTime="0.00" waitingCount="0" stopTime="0.00" timeLoss="37.39" rerouteNo="1" devices="tripinfo_veh30.1 routing_veh30.1" vType="veh_passenger" speedFactor="0.97" vaporized=""/>